 &FCI NORB=   9,NELEC=11,MS2=1,
  ORBSYM=1,1,1,1,1,1,1,1,1,
  ISYM=1,
 &END
 0.3713723884404915    1    1    1    1
 9.259109758257673e-06    2    1    1    1
 0.0353615887767369    2    1    2    1
 0.2751688018018236    2    2    1    1
 1.910357988378457e-06    2    2    2    1
 0.3431718338446771    2    2    2    2
 -1.667408217853584e-05    3    1    1    1
 0.04293182070842362    3    1    2    1
 2.109158031105703e-05    3    1    2    2
 0.05301763312643506    3    1    3    1
 0.04906959978632626    3    2    1    1
 2.124251745219577e-05    3    2    2    1
 -0.04345908337537958    3    2    2    2
 -1.601438604404342e-06    3    2    3    1
 0.06108587377197845    3    2    3    2
 0.2959426984446958    3    3    1    1
 1.034953810284407e-06    3    3    2    1
 0.2962757298305436    3    3    2    2
 4.328880908316401e-07    3    3    3    1
 4.568452144783353e-05    3    3    3    2
 0.2846634000105684    3    3    3    3
 7.906921596476523e-06    4    1    1    1
 0.0008292575593120269    4    1    2    1
 2.026990952973444e-06    4    1    2    2
 0.00120952075777196    4    1    3    1
 -2.961220951080675e-06    4    1    3    2
 9.094618195727781e-07    4    1    3    3
 0.005668437374420099    4    1    4    1
 0.000576104732736154    4    2    1    1
 -9.091051147373007e-07    4    2    2    1
 0.0002482674159835953    4    2    2    2
 -2.968993605764466e-06    4    2    3    1
 -0.0005345284372880322    4    2    3    2
 2.341583129482612e-05    4    2    3    3
 -9.605928208117749e-06    4    2    4    1
 0.004506729748187623    4    2    4    2
 0.001376833410785693    4    3    1    1
 -1.449952862895554e-06    4    3    2    1
 -0.0004409391829213385    4    3    2    2
 8.29644386346076e-07    4    3    3    1
 -7.78159760185216e-05    4    3    3    2
 -0.0002302389315362754    4    3    3    3
 0.0001262611596895893    4    3    4    1
 -0.002723355223982695    4    3    4    2
 0.01174191655895302    4    3    4    3
 0.3238088515484836    4    4    1    1
 0.0001602285545156858    4    4    2    1
 0.3330174211365698    4    4    2    2
 0.0002405313150260231    4    4    3    1
 -0.004609845009795215    4    4    3    2
 0.3168767698262767    4    4    3    3
 4.129399070429955e-06    4    4    4    1
 0.000336793327349698    4    4    4    2
 -0.005030019191082596    4    4    4    3
 0.5712995052679209    4    4    4    4
 0.0005846260218276583    5    1    1    1
 -7.659640054810455e-06    5    1    2    1
 0.0001538139477483949    5    1    2    2
 -1.130775253364904e-05    5    1    3    1
 -0.000351021224642524    5    1    3    2
 6.770646232218065e-05    5    1    3    3
 2.02180402524276e-06    5    1    4    1
 -0.0003571523387428015    5    1    4    2
 0.006432151855828322    5    1    4    3
 -0.001385704752417087    5    1    4    4
 0.00580584247221894    5    1    5    1
 -4.681931083446833e-06    5    2    1    1
 -0.0001427653572616839    5    2    2    1
 -3.102438508709594e-06    5    2    2    2
 -0.0003555898881214832    5    2    3    1
 5.361657499547759e-06    5    2    3    2
 -4.549713380436754e-07    5    2    3    3
 -0.0006731203349783266    5    2    4    1
 2.624628833236074e-06    5    2    4    2
 -1.026100601275063e-05    5    2    4    3
 -1.264829044968889e-05    5    2    4    4
 1.039655243263618e-05    5    2    5    1
 0.004753277236658911    5    2    5    2
 -1.23542930556493e-05    5    3    1    1
 -0.0001636764274466008    5    3    2    1
 4.359473933556791e-06    5    3    2    2
 0.0001094260366659406    5    3    3    1
 4.308978172299114e-07    5    3    3    2
 2.216274315634668e-06    5    3    3    3
 0.006428349086389985    5    3    4    1
 -1.015231130943281e-05    5    3    4    2
 -7.504460838999251e-07    5    3    4    3
 6.918081372746347e-05    5    3    4    4
 -0.0001245514377866012    5    3    5    1
 -0.003867787968013166    5    3    5    2
 0.01164524849851522    5    3    5    3
 1.397428604847401e-06    5    4    1    1
 0.008109350558169158    5    4    2    1
 -2.073439315090993e-05    5    4    2    2
 0.01217351333525543    5    4    3    1
 -2.526270109353489e-05    5    4    3    2
 -1.988067470369219e-05    5    4    3    3
 0.0008879969396264738    5    4    4    1
 7.304154326888396e-06    5    4    4    2
 7.024249626735838e-05    5    4    4    3
 3.425742075261796e-06    5    4    4    4
 3.363322004088021e-06    5    4    5    1
 -0.0004498912162730293    5    4    5    2
 0.001054365153478962    5    4    5    3
 0.02423030865024954    5    4    5    4
 0.3241710855662313    5    5    1    1
 -0.0001554780358633522    5    5    2    1
 0.3306834157489952    5    5    2    2
 -0.0002337377036279141    5    5    3    1
 -0.00737751304684172    5    5    3    2
 0.3149236593513065    5    5    3    3
 -1.770752838797037e-05    5    5    4    1
 0.001495565063580187    5    5    4    2
 0.0011259977033936    5    5    4    3
 0.523501906668033    5    5    4    4
 -0.0001624408387212648    5    5    5    1
 -5.556000052689501e-06    5    5    5    2
 -2.966253386414404e-05    5    5    5    3
 -1.291304903138597e-05    5    5    5    4
 0.5709352029183974    5    5    5    5
 9.797761081578214e-07    6    1    1    1
 0.001259017544298382    6    1    2    1
 6.239526648516998e-07    6    1    2    2
 0.001671501903580052    6    1    3    1
 1.332945404394808e-06    6    1    3    2
 4.204868140949688e-07    6    1    3    3
 0.0002135419678645509    6    1    4    1
 1.636669715824067e-06    6    1    4    2
 -5.681680905300244e-06    6    1    4    3
 1.991031799768682e-05    6    1    4    4
 -1.710452605810885e-06    6    1    5    1
 0.0001310548486020052    6    1    5    2
 -0.0005971679319651637    6    1    5    3
 0.0009848011441287577    6    1    5    4
 -1.950242673080479e-05    6    1    5    5
 0.005265782570069014    6    1    6    1
 0.000967718307249458    6    2    1    1
 5.489112884550924e-07    6    2    2    1
 0.001611428576217378    6    2    2    2
 1.422802520897088e-06    6    2    3    1
 -0.004369849420744303    6    2    3    2
 -0.0006086214440707213    6    2    3    3
 3.399235857348137e-06    6    2    4    1
 0.0004368536488079964    6    2    4    2
 0.001675649631055392    6    2    4    3
 -0.003522188907641545    6    2    4    4
 0.000294078666291898    6    2    5    1
 -3.942388469816723e-06    6    2    5    2
 -1.545057309161228e-05    6    2    5    3
 0.0001129147883699539    6    2    5    4
 0.008025525926958644    6    2    5    5
 1.598230679949542e-07    6    2    6    1
 0.007289066198242812    6    2    6    2
 0.003226957810590436    6    3    1    1
 1.565519272827838e-06    6    3    2    1
 -0.002957927317109395    6    3    2    2
 7.468645498714068e-07    6    3    3    1
 -0.0008852432922828945    6    3    3    2
 -0.001879905838459992    6    3    3    3
 -5.316433150044449e-06    6    3    4    1
 0.001627361139450655    6    3    4    2
 0.0003430554646537855    6    3    4    3
 -0.008585929744881983    6    3    4    4
 -0.0005581227711998535    6    3    5    1
 -1.50392730239298e-05    6    3    5    2
 -2.984518785587145e-06    6    3    5    3
 0.0002378580107097341    6    3    5    4
 0.01578921198291029    6    3    5    5
 -6.272680708673765e-07    6    3    6    1
 0.008363798456930263    6    3    6    2
 0.01284573352857439    6    3    6    3
 0.001481911081187261    6    4    1    1
 -8.686369206309925e-06    6    4    2    1
 -0.001987844112526106    6    4    2    2
 -1.267445116803266e-05    6    4    3    1
 0.002803334516400446    6    4    3    2
 -0.0001576441603918087    6    4    3    3
 2.533326114745544e-06    6    4    4    1
 0.002166483613762677    6    4    4    2
 -0.01136492830183801    6    4    4    3
 -0.0009390445663600027    6    4    4    4
 -0.004248288041183075    6    4    5    1
 -4.825936573394687e-05    6    4    5    2
 0.0002322486190149984    6    4    5    3
 1.319954320326996e-05    6    4    5    4
 0.000749187909457428    6    4    5    5
 -5.994321364115898e-06    6    4    6    1
 0.0005268031909457916    6    4    6    2
 0.004004620439650149    6    4    6    3
 0.02388401887913383    6    4    6    4
 -1.332970589280023e-05    6    5    1    1
 -0.0009525719562203697    6    5    2    1
 1.854135494961039e-05    6    5    2    2
 -0.001264214435321849    6    5    3    1
 -2.62081066501972e-05    6    5    3    2
 1.658232176238972e-06    6    5    3    3
 0.004559941919570648    6    5    4    1
 -4.714896832567352e-05    6    5    4    2
 0.0002323501449742095    6    5    4    3
 2.844359587878837e-06    6    5    4    4
 -2.391005318233943e-06    6    5    5    1
 -0.002732870816988242    6    5    5    2
 0.01245061743110091    6    5    5    3
 -0.0003101154616319537    6    5    5    4
 -1.767157856282474e-06    6    5    5    5
 -0.0006152854178793615    6    5    6    1
 -5.344796380611066e-06    6    5    6    2
 -4.020500325022362e-05    6    5    6    3
 3.52163069147933e-06    6    5    6    4
 0.02427551052593205    6    5    6    5
 0.3377081882472751    6    6    1    1
 6.403390413822839e-06    6    6    2    1
 0.3204210034732712    6    6    2    2
 2.502860598253831e-07    6    6    3    1
 0.01492374532731666    6    6    3    2
 0.3166395075381596    6    6    3    3
 7.940085596717602e-06    6    6    4    1
 3.80176584046639e-05    6    6    4    2
 0.004035851014370865    6    6    4    3
 0.5227098429759834    6    6    4    4
 0.0007815160174232103    6    6    5    1
 1.560812472461981e-07    6    6    5    2
 -4.076800102344614e-05    6    6    5    3
 6.092237793599384e-05    6    6    5    4
 0.5292295421035849    6    6    5    5
 4.630875697603882e-07    6    6    6    1
 0.002633724260706425    6    6    6    2
 0.008236056586903188    6    6    6    3
 0.0005230891578260908    6    6    6    4
 -5.761054459606056e-06    6    6    6    5
 0.5785911905856846    6    6    6    6
 2.607181753075383e-06    7    1    1    1
 -0.009994524680594525    7    1    2    1
 -5.872943668131444e-06    7    1    2    2
 -0.01169732043731665    7    1    3    1
 4.981754056783186e-07    7    1    3    2
 -9.61942393076515e-07    7    1    3    3
 -0.000214068051901106    7    1    4    1
 6.078754567916239e-07    7    1    4    2
 -7.719302825359784e-10    7    1    4    3
 -6.020378884834941e-05    7    1    4    4
 1.997844720721732e-06    7    1    5    1
 6.707918091128118e-05    7    1    5    2
 -1.662164807748463e-05    7    1    5    3
 -0.002924476610384925    7    1    5    4
 5.356014961054366e-05    7    1    5    5
 -0.00020447355145214    7    1    6    1
 -5.477998834745107e-07    7    1    6    2
 -4.859245814496157e-07    7    1    6    3
 2.773788092933396e-06    7    1    6    4
 0.0002888380643115247    7    1    6    5
 -2.727241445553657e-06    7    1    6    6
 0.006313427826088906    7    1    7    1
 -0.01186608100735818    7    2    1    1
 -5.44446066114417e-06    7    2    2    1
 0.01135055214055873    7    2    2    2
 2.806112528994796e-07    7    2    3    1
 -0.015141842691624    7    2    3    2
 0.0001173116928718337    7    2    3    3
 4.164500509674971e-07    7    2    4    1
 0.000122225252778421    7    2    4    2
 -3.633676373938248e-05    7    2    4    3
 0.0004408722002624158    7    2    4    4
 4.919509851268371e-05    7    2    5    1
 -1.276422547207977e-06    7    2    5    2
 5.303392185726243e-07    7    2    5    3
 1.615622610135788e-06    7    2    5    4
 0.0006765756694103737    7    2    5    5
 -5.895243584881727e-07    7    2    6    1
 0.0009660389430550476    7    2    6    2
 -6.767582114509938e-05    7    2    6    3
 -0.0008175829935756454    7    2    6    4
 7.701462268654683e-06    7    2    6    5
 -0.005346373203312473    7    2    6    6
 -2.27133672519227e-07    7    2    7    1
 0.007575874591208109    7    2    7    2
 -0.00978453897196907    7    3    1    1
 2.260795522326746e-07    7    3    2    1
 -0.01160100745684705    7    3    2    2
 -1.739909891972102e-08    7    3    3    1
 0.0006428974459140614    7    3    3    2
 -0.008308839313911421    7    3    3    3
 -5.522334913766108e-08    7    3    4    1
 -2.353246277534505e-05    7    3    4    2
 5.734835786488971e-05    7    3    4    3
 -0.005985938920725471    7    3    4    4
 -6.393430899090972e-06    7    3    5    1
 3.354089144653897e-07    7    3    5    2
 -5.395664768223739e-07    7    3    5    3
 -7.87832322030721e-06    7    3    5    4
 -0.006773330149239536    7    3    5    5
 -2.690151032532173e-07    7    3    6    1
 -9.248235662471022e-05    7    3    6    2
 0.000312583775875596    7    3    6    3
 -0.0001505123825965719    7    3    6    4
 1.471038679254263e-06    7    3    6    5
 -0.006860805147921885    7    3    6    6
 8.840167418810887e-08    7    3    7    1
 -0.0003968318240852489    7    3    7    2
 0.007410101945639765    7    3    7    3
 -0.001620157603618088    7    4    1    1
 -3.496183754461783e-07    7    4    2    1
 -0.0006428993479306555    7    4    2    2
 -4.885987584017797e-07    7    4    3    1
 -0.0002248998429596773    7    4    3    2
 -0.0007066027917010758    7    4    3    3
 -3.126519974644659e-05    7    4    4    1
 0.0006086036080874522    7    4    4    2
 -0.001805965127811385    7    4    4    3
 -0.0006076222537795455    7    4    4    4
 -0.001335553298262907    7    4    5    1
 6.409216063276983e-06    7    4    5    2
 -1.42769058082271e-05    7    4    5    3
 -2.699294286996112e-05    7    4    5    4
 -0.002794587670990571    7    4    5    5
 1.026074135926229e-06    7    4    6    1
 -0.0005934346226737943    7    4    6    2
 -0.0004245938150830736    7    4    6    3
 0.002910719156130311    7    4    6    4
 -8.713106851079524e-05    7    4    6    5
 -0.003654770335152059    7    4    6    6
 -3.583416351360203e-07    7    4    7    1
 9.91160257938734e-05    7    4    7    2
 0.0001353849012535921    7    4    7    3
 0.01063023167876189    7    4    7    4
 1.497319034579185e-05    7    5    1    1
 -9.22956176981862e-06    7    5    2    1
 6.076675112540823e-06    7    5    2    2
 -4.654619228849255e-05    7    5    3    1
 2.25794849595558e-06    7    5    3    2
 6.894751199699482e-06    7    5    3    3
 -0.001830044270463739    7    5    4    1
 6.2072728524623e-06    7    5    4    2
 -1.430696737291128e-05    7    5    4    3
 -5.021264124940762e-06    7    5    4    4
 3.04691056577839e-05    7    5    5    1
 0.001287950820500692    7    5    5    2
 -0.003243429630754724    7    5    5    3
 -0.0005777711330940608    7    5    5    4
 3.787947943352521e-05    7    5    5    5
 0.0001284321953575821    7    5    6    1
 5.409944972482332e-06    7    5    6    2
 3.996241648173226e-06    7    5    6    3
 -8.681849095968717e-05    7    5    6    4
 -0.006002452977221896    7    5    6    5
 3.64340236050092e-05    7    5    6    6
 -3.666671719650482e-05    7    5    7    1
 -9.329504056416078e-07    7    5    7    2
 -1.32876573582811e-06    7    5    7    3
 1.35075332867565e-05    7    5    7    4
 0.01199739280154194    7    5    7    5
 -0.008973154879642552    7    6    1    1
 -1.501226101126067e-06    7    6    2    1
 -0.005026550308570021    7    6    2    2
 -6.518382380669616e-07    7    6    3    1
 -0.0009558624971616151    7    6    3    2
 -0.005242744943342314    7    6    3    3
 3.554682598260193e-07    7    6    4    1
 -0.0005588505344696249    7    6    4    2
 -0.0003927956006087932    7    6    4    3
 -0.01336084066069736    7    6    4    4
 5.967981760512614e-05    7    6    5    1
 5.054813069707478e-06    7    6    5    2
 3.725159898915244e-06    7    6    5    3
 -9.958364738689885e-05    7    6    5    4
 -0.02356300729094903    7    6    5    5
 6.567335330705227e-08    7    6    6    1
 -0.003127501021598855    7    6    6    2
 -0.004130701266682784    7    6    6    3
 -0.001623178584217043    7    6    6    4
 1.644934615669768e-05    7    6    6    5
 -0.02255646861916627    7    6    6    6
 3.814305594164063e-07    7    6    7    1
 0.0006275771815512358    7    6    7    2
 0.001230609856072572    7    6    7    3
 0.0005196377563704955    7    6    7    4
 -4.94637609312011e-06    7    6    7    5
 0.01385233521356044    7    6    7    6
 0.2990301179982904    7    7    1    1
 1.577873243270231e-06    7    7    2    1
 0.3034126754741784    7    7    2    2
 1.72724328335698e-06    7    7    3    1
 -0.001174205141531201    7    7    3    2
 0.2924085776068652    7    7    3    3
 -2.192523748875062e-06    7    7    4    1
 0.0003849579743992781    7    7    4    2
 4.80561686966443e-05    7    7    4    3
 0.4364863566297483    7    7    4    4
 -0.0002498130025344868    7    7    5    1
 -3.92046582055848e-06    7    7    5    2
 -7.77238085297987e-07    7    7    5    3
 1.958170970015743e-05    7    7    5    4
 0.4386586132337242    7    7    5    5
 5.028643921809774e-07    7    7    6    1
 0.001516374277329164    7    7    6    2
 0.00324307858787489    7    7    6    3
 0.0002499357483348617    7    7    6    4
 -2.822931667096316e-06    7    7    6    5
 0.4407593123117743    7    7    6    6
 -1.891310211464114e-06    7    7    7    1
 -0.0006418611537655425    7    7    7    2
 -0.002336263636589688    7    7    7    3
 -0.001457090846564795    7    7    7    4
 1.454297725413806e-05    7    7    7    5
 -0.01258714789549123    7    7    7    6
 0.3793221585160111    7    7    7    7
 -4.651762323614329e-06    8    1    1    1
 -0.01006746675891371    8    1    2    1
 -7.187668143577544e-07    8    1    2    2
 -0.01233761803253447    8    1    3    1
 -6.764155030588673e-06    8    1    3    2
 -9.588781401648285e-07    8    1    3    3
 -0.0002190275056875708    8    1    4    1
 -3.448762282229903e-07    8    1    4    2
 -2.087475809753477e-06    8    1    4    3
 4.027270229311445e-05    8    1    4    4
 1.904470358148922e-06    8    1    5    1
 -2.552266396215551e-05    8    1    5    2
 -0.0002398620612347127    8    1    5    3
 0.002146546223619832    8    1    5    4
 -4.358725050570615e-05    8    1    5    5
 -1.173368469550719e-05    8    1    6    1
 -2.35100477926469e-07    8    1    6    2
 -3.752761724020603e-07    8    1    6    3
 -4.770960577452611e-06    8    1    6    4
 -0.0004663092238830518    8    1    6    5
 -3.988880806258858e-07    8    1    6    6
 0.002911866777530418    8    1    7    1
 1.612540487601893e-06    8    1    7    2
 -2.223412500935792e-07    8    1    7    3
 9.426795111389856e-07    8    1    7    4
 9.711724165209552e-05    8    1    7    5
 3.346839171170603e-07    8    1    7    6
 -1.383036640367627e-07    8    1    7    7
 0.008443950121203195    8    1    8    1
 0.02597038662676387    8    2    1    1
 7.45834741002117e-07    8    2    2    1
 0.005249961370254654    8    2    2    2
 -5.708339058149931e-06    8    2    3    1
 0.01379406319139839    8    2    3    2
 0.01440486646453012    8    2    3    3
 -1.071652429579377e-06    8    2    4    1
 9.338083610419256e-05    8    2    4    2
 -6.590128068803345e-05    8    2    4    3
 0.1010161985161298    8    2    4    4
 -0.0001045126596621553    8    2    5    1
 -6.197763040243615e-07    8    2    5    2
 2.563299063494911e-07    8    2    5    3
 -1.036664116878201e-05    8    2    5    4
 0.1000047526746524    8    2    5    5
 -4.478140992319199e-08    8    2    6    1
 -0.0001180342096830547    8    2    6    2
 0.00108060276552095    8    2    6    3
 -0.0007347329795439776    8    2    6    4
 6.499869070804992e-06    8    2    6    5
 0.09711316226904258    8    2    6    6
 6.510877509736197e-07    8    2    7    1
 -0.004324648264521521    8    2    7    2
 0.002542276834501522    8    2    7    3
 -0.0006047769241811872    8    2    7    4
 6.152411493210537e-06    8    2    7    5
 -0.005184050162649113    8    2    7    6
 0.06581661769896248    8    2    7    7
 -8.600711668451918e-08    8    2    8    1
 0.05175382688113601    8    2    8    2
 -0.01300734029129431    8    3    1    1
 -5.634833848666487e-06    8    3    2    1
 0.01091979789227966    8    3    2    2
 2.666766070449214e-07    8    3    3    1
 -0.01505810830117355    8    3    3    2
 -0.0003664987660916399    8    3    3    3
 -1.218677541367631e-06    8    3    4    1
 -2.390782074572034e-05    8    3    4    2
 7.241518885404912e-05    8    3    4    3
 -0.006741795539136523    8    3    4    4
 -0.0001368935248316429    8    3    5    1
 -6.06519988102165e-08    8    3    5    2
 -5.988612135213718e-07    8    3    5    3
 -1.524094025511617e-05    8    3    5    4
 -0.008439731616112205    8    3    5    5
 -1.631075108025719e-07    8    3    6    1
 8.432546671357938e-05    8    3    6    2
 0.0002936600838713206    8    3    6    3
 0.001689773126503303    8    3    6    4
 -1.582348277105771e-05    8    3    6    5
 0.005670420489294004    8    3    6    6
 -2.455561287369067e-07    8    3    7    1
 0.004250006557227641    8    3    7    2
 -0.0003403966740302564    8    3    7    3
 5.815637331770066e-06    8    3    7    4
 -1.361776791516923e-07    8    3    7    5
 -0.000175110503645203    8    3    7    6
 -0.001320862178884411    8    3    7    7
 4.598953016871608e-06    8    3    8    1
 -0.01143930508583924    8    3    8    2
 0.01389122343669289    8    3    8    3
 -0.0008914828834960447    8    4    1    1
 -2.685733238521328e-06    8    4    2    1
 -0.0003560179095571034    8    4    2    2
 -4.168526841219959e-06    8    4    3    1
 -0.0002804909731753557    8    4    3    2
 -0.0003461218500363661    8    4    3    3
 -4.815680334400551e-05    8    4    4    1
 0.006092140252416567    8    4    4    2
 -0.005171326372539677    8    4    4    3
 -0.0008339696309264243    8    4    4    4
 -0.002021104432546452    8    4    5    1
 5.703979991773057e-06    8    4    5    2
 -2.571991003974765e-05    8    4    5    3
 8.862255580461929e-06    8    4    5    4
 0.001108880251501045    8    4    5    5
 2.059795391341646e-06    8    4    6    1
 0.0005513936195880602    8    4    6    2
 0.002276314335038375    8    4    6    3
 0.004575615276398643    8    4    6    4
 -0.0001099604669517683    8    4    6    5
 -0.001623671599178645    8    4    6    6
 1.065566182760289e-06    8    4    7    1
 8.937922037944215e-06    8    4    7    2
 -4.381236455004315e-05    8    4    7    3
 0.001991529936540705    8    4    7    4
 1.735666329979558e-05    8    4    7    5
 -0.0009380652173650991    8    4    7    6
 -0.000150831582702483    8    4    7    7
 -6.383459798426855e-08    8    4    8    1
 -0.0001794258109618622    8    4    8    2
 -0.000355235449986483    8    4    8    3
 0.01481785336012169    8    4    8    4
 7.706784737965378e-06    8    5    1    1
 -0.0002833822037645742    8    5    2    1
 3.596543516347079e-06    8    5    2    2
 -0.000471001015065283    8    5    3    1
 2.144347449511855e-06    8    5    3    2
 3.248154781199136e-06    8    5    3    3
 -0.002948052552464044    8    5    4    1
 5.572632458975627e-06    8    5    4    2
 -2.56687617180444e-05    8    5    4    3
 -1.440755490734408e-05    8    5    4    4
 4.867063116387876e-05    8    5    5    1
 0.006761736979577106    8    5    5    2
 -0.00798810385054431    8    5    5    3
 -0.001093754776587073    8    5    5    4
 1.025642309765862e-05    8    5    5    5
 0.0002411537241289635    8    5    6    1
 -5.228489469234944e-06    8    5    6    2
 -2.146325071867671e-05    8    5    6    3
 -0.0001123337931446165    8    5    6    4
 -0.006822311226395712    8    5    6    5
 1.693895105318855e-05    8    5    6    6
 0.0001306008027685435    8    5    7    1
 1.639278866318874e-08    8    5    7    2
 3.698166880486661e-07    8    5    7    3
 1.7463013979822e-05    8    5    7    4
 0.00384361175131972    8    5    7    5
 8.840724948511584e-06    8    5    7    6
 1.746218005389138e-06    8    5    7    7
 -1.622041070037271e-05    8    5    8    1
 1.699724411663066e-06    8    5    8    2
 3.331469379603652e-06    8    5    8    3
 2.025293036127289e-05    8    5    8    4
 0.01706079101764431    8    5    8    5
 -0.003205690556737925    8    6    1    1
 -4.865901377544207e-07    8    6    2    1
 -0.00167942738357951    8    6    2    2
 1.077229438755243e-07    8    6    3    1
 -0.001875002178194174    8    6    3    2
 -0.001677011851632854    8    6    3    3
 3.706330349811343e-06    8    6    4    1
 0.0005865213423816122    8    6    4    2
 0.002352837248041551    8    6    4    3
 -0.01234173264454923    8    6    4    4
 0.0003783268048576141    8    6    5    1
 -5.467716234031252e-06    8    6    5    2
 -2.210662184573388e-05    8    6    5    3
 0.000209671759539768    8    6    5    4
 0.009142130307105869    8    6    5    5
 -6.724074175572204e-07    8    6    6    1
 0.01053448702982947    8    6    6    2
 0.01169899263368096    8    6    6    3
 0.001057354679240959    8    6    6    4
 -1.067308625239162e-05    8    6    6    5
 -0.0004447052991378288    8    6    6    6
 -7.427747354728852e-08    8    6    7    1
 2.666832603007739e-05    8    6    7    2
 -0.0003647234898465183    8    6    7    3
 -0.0009947915048653421    8    6    7    4
 9.389538059627101e-06    8    6    7    5
 -0.005208514877718874    8    6    7    6
 0.0002175457609070894    8    6    7    7
 1.784051699531953e-07    8    6    8    1
 -0.0005884963189109362    8    6    8    2
 -0.002487804837636456    8    6    8    3
 0.00138569227234282    8    6    8    4
 -1.285570472371296e-05    8    6    8    5
 0.02489053745578376    8    6    8    6
 0.002151879644986128    8    7    1    1
 1.078853410714361e-06    8    7    2    1
 -0.003946980719358292    8    7    2    2
 -4.766593525868659e-07    8    7    3    1
 0.004513375933458857    8    7    3    2
 -0.0003755453780028517    8    7    3    3
 3.824393531966419e-07    8    7    4    1
 -8.026415964572291e-05    8    7    4    2
 -0.0001440102379270846    8    7    4    3
 0.004263458441632817    8    7    4    4
 6.495505943227211e-05    8    7    5    1
 7.255177759745384e-07    8    7    5    2
 1.221334954059051e-06    8    7    5    3
 -4.814138799963939e-07    8    7    5    4
 0.004317616209201074    8    7    5    5
 2.033266237175995e-08    8    7    6    1
 -0.0005015559259838804    8    7    6    2
 -0.0009225470156445426    8    7    6    3
 -0.001291437325815426    8    7    6    4
 1.220759512478157e-05    8    7    6    5
 -0.0051076017105925    8    7    6    6
 4.906207691548362e-07    8    7    7    1
 0.001082691469137766    8    7    7    2
 0.0002912090231499444    8    7    7    3
 0.0001849598882670431    8    7    7    4
 -1.665753950889492e-06    8    7    7    5
 0.001055001358448189    8    7    7    6
 0.0008559786785618721    8    7    7    7
 -2.4455425551872e-06    8    7    8    1
 0.006606497661109195    8    7    8    2
 -0.007851025381546115    8    7    8    3
 9.436932013344489e-05    8    7    8    4
 -6.129062775288123e-07    8    7    8    5
 0.0005189751195707345    8    7    8    6
 0.01268797606767363    8    7    8    7
 0.314421386534508    8    8    1    1
 2.594778092531022e-06    8    8    2    1
 0.3494037228309234    8    8    2    2
 1.072439678281509e-05    8    8    3    1
 -0.02071973077521354    8    8    3    2
 0.3172589633524471    8    8    3    3
 -1.283130022037009e-07    8    8    4    1
 0.0004205237848967909    8    8    4    2
 -0.000605989995150518    8    8    4    3
 0.5290189522698547    8    8    4    4
 -5.847715741145716e-05    8    8    5    1
 -4.169241584020197e-06    8    8    5    2
 5.374823169552317e-06    8    8    5    3
 -4.516455796550007e-05    8    8    5    4
 0.5243302270292095    8    8    5    5
 4.703467119293765e-07    8    8    6    1
 0.001504119478090918    8    8    6    2
 -0.0008111698376506451    8    8    6    3
 -0.00340795939486107    8    8    6    4
 3.118796434737996e-05    8    8    6    5
 0.509052461244983    8    8    6    6
 -5.691181732050358e-06    8    8    7    1
 0.006214821213876256    8    8    7    2
 -0.01061110774756993    8    8    7    3
 -0.001877806633215904    8    8    7    4
 1.879956231004218e-05    8    8    7    5
 -0.01605210765468784    8    8    7    6
 0.4299703570575858    8    8    7    7
 -7.234372055753453e-07    8    8    8    1
 0.1005268975712234    8    8    8    2
 -0.007624459876366731    8    8    8    3
 -0.0008424205189967856    8    8    8    4
 8.106912210789456e-06    8    8    8    5
 -0.003423579811050316    8    8    8    6
 0.005241911419329897    8    8    8    7
 0.555049067176471    8    8    8    8
 -0.007123388869208117    9    1    1    1
 -1.885345803916019e-06    9    1    2    1
 0.02359242073874755    9    1    2    2
 5.764462366921993e-06    9    1    3    1
 -0.01415312741216444    9    1    3    2
 0.01268153143244975    9    1    3    3
 -4.303225793370152e-06    9    1    4    1
 -9.513244751582553e-05    9    1    4    2
 -0.0001492909749359677    9    1    4    3
 0.09173265541422367    9    1    4    4
 -0.00036726262432223    9    1    5    1
 5.90734978540505e-07    9    1    5    2
 6.658359233669385e-07    9    1    5    3
 -5.624238787008395e-06    9    1    5    4
 0.09132770115488599    9    1    5    5
 -3.341284159580842e-07    9    1    6    1
 -3.189657971452383e-05    9    1    6    2
 0.000899272868117459    9    1    6    3
 0.0003151362302379068    9    1    6    4
 -3.251905415503165e-06    9    1    6    5
 0.09628609556074554    9    1    6    6
 -2.180238933203534e-06    9    1    7    1
 0.002901328866436247    9    1    7    2
 0.001605774159826268    9    1    7    3
 -0.0004905641292395094    9    1    7    4
 5.250223554045981e-06    9    1    7    5
 -0.00480477163182357    9    1    7    6
 0.06413815302403837    9    1    7    7
 1.388418739982339e-06    9    1    8    1
 0.03170672391501116    9    1    8    2
 0.009028770848341238    9    1    8    3
 -0.0001237185837195461    9    1    8    4