 &FCI NORB=  14,NELEC= 4,MS2=0,
  ORBSYM=1,1,1,1,1,1,1,1,1,1,1,1,1,1,
  ISYM=1,
 &END
 2.273135921441444    1    1    1    1
 -0.190188060087035    1    1    2    1
 0.4808987340791102    1    1    2    2
 0.3313252223092555    1    1    3    3
 0.3313252223092554    1    1    4    4
 0.3313252223092555    1    1    5    5
 -0.1576659020725214    1    1    6    1
 0.1824664924044938    1    1    6    2
 0.3772589491061938    1    1    6    6
 0.1538908203333301    1    1    7    3
 0.04983700022817721    1    1    7    4
 0.06576381372911712    1    1    7    5
 0.5282833763309612    1    1    7    7
 -0.07350726286749662    1    1    8    3
 0.1460274320811227    1    1    8    4
 0.06134868993163991    1    1    8    5
 0.5282833763309609    1    1    8    8
 -0.0374871723883    1    1    9    3
 -0.08175116426606045    1    1    9    4
 0.149674478179415    1    1    9    5
 0.5282833763309615    1    1    9    9
 0.415087895805663    1    1   10   10
 0.4150878958056631    1    1   11   11
 0.4150878958056633    1    1   12   12
 0.4150878958056637    1    1   13   13
 0.4150878958056635    1    1   14   14
 -0.190188060087035    2    1    1    1
 0.02530580704218956    2    1    2    1
 -0.005659814224827458    2    1    2    2
 -0.001026592695680444    2    1    3    3
 -0.001026592695680444    2    1    4    4
 -0.001026592695680445    2    1    5    5
 0.0205039757965546    2    1    6    1
 -0.004614989735645177    2    1    6    2
 -0.003935777592471433    2    1    6    6
 -0.002365744181815982    2    1    7    3
 -0.0007661379221554297    2    1    7    4
 -0.001010978818403198    2    1    7    5
 -0.007138291011820981    2    1    7    7
 0.00113001788588383    2    1    8    3
 -0.002244861305457757    2    1    8    4
 -0.000943105676826234    2    1    8    5
 -0.007138291011820976    2    1    8    8
 0.0005762855755675353    2    1    9    3
 0.00125675034287427    2    1    9    4
 -0.002300926885387485    2    1    9    5
 -0.007138291011820984    2    1    9    9
 -0.0005765609837665283    2    1   10   10
 -0.0005765609837665653    2    1   11   11
 -0.0005765609837665535    2    1   12   12
 -0.0005765609837665674    2    1   13   13
 -0.0005765609837665677    2    1   14   14
 0.4808987340791102    2    2    1    1
 -0.005659814224827479    2    2    2    1
 0.3434890608448234    2    2    2    2
 0.2786330505213331    2    2    3    3
 0.278633050521333    2    2    4    4
 0.278633050521333    2    2    5    5
 -0.004621777852748742    2    2    6    1
 0.07424455182673848    2    2    6    2
 0.2770500737922485    2    2    6    6
 0.07317344827125515    2    2    7    3
 0.0236969635374751    2    2    7    4
 0.03126999395808522    2    2    7    5
 0.3288876292125859    2    2    7    7
 -0.03495192166333113    2    2    8    3
 0.06943449079306778    2    2    8    4
 0.02917064955205693    2    2    8    5
 0.3288876292125858    2    2    8    8
 -0.0178247517535443    2    2    9    3
 -0.03887180909543735    2    2    9    4
 0.07116862242248037    2    2    9    5
 0.3288876292125861    2    2    9    9
 0.3419714737674193    2    2   10   10
 0.3419714737674194    2    2   11   11
 0.3419714737674195    2    2   12   12
 0.3419714737674198    2    2   13   13
 0.3419714737674197    2    2   14   14
 0.002767512594927466    3    1    3    1
 0.005319316242772255    3    1    3    2
 0.001848224256792251    3    1    6    3
 0.00657432271863316    3    1    7    1
 0.00549330883289796    3    1    7    2
 0.00530440447472047    3    1    7    6
 -0.00314028131897388    3    1    8    1
 -0.002623925816481696    3    1    8    2
 -0.002533694038632363    3    1    8    6
 -0.001601478038494415    3    1    9    1
 -0.001338147491546096    3    1    9    2
 -0.001292131165006526    3    1    9    6
 -0.0006681153284519337    3    1   10    3
 0.00165589089188355    3    1   10    4
 0.0005852404902705114    3    1   10    5
 0.0001133274258646571    3    1   10    7
 0.002035547437843741    3    1   10    8
 -0.0001415680815254112    3    1   10    9
 0.002671279589151723    3    1   11    3
 0.0003822433933967188    3    1   11    4
 -0.001963016193002907    3    1   11    5
 0.001874976510145011    3    1   11    7
 -0.001625401342385574    3    1   11    8
 -0.002648293525097408    3    1   11    9
 0.001569296233683892    3    1   12    3
 0.002519726471683498    3    1   12    4
 0.002094346332616548    3    1   12    5
 0.003144113154418869    3    1   12    7
 0.002373492813068011    3    1   12    8
 0.0003030155440306536    3    1   12    9
 -0.00305397373314211    3    1   13    3
 0.001453381980490771    3    1   13    4
 -0.001000551227626179    3    1   13    5
 -0.002885875823125871    3    1   13    7
 0.002337745057739854    3    1   13    8
 -0.0009597102764865074    3    1   13    9
 -0.0003157836648936634    3    1   14    3
 -0.001803893951097085    3    1   14    4
 0.002240564748506168    3    1   14    5
 5.512830162332333e-05    3    1   14    7
 -0.0006399606189436526    3    1   14    8
 0.003080930020941144    3    1   14    9
 0.005319316242772256    3    2    3    1
 0.05400677416560275    3    2    3    2
 -0.00807961962200858    3    2    6    3
 0.01098951924833614    3    2    7    1
 0.02802260910253386    3    2    7    2
 0.0389939007433218    3    2    7    6
 -0.005249237598611334    3    2    8    1
 -0.0133852382427448    3    2    8    2
 -0.01862576926914743    3    2    8    6
 -0.002677001796693214    3    2    9    1
 -0.006826192594992063    3    2    9    2
 -0.009498754221278046    3    2    9    6
 -0.007151365543915168    3    2   10    3
 0.01772430681412053    3    2   10    4
 0.006264290757588352    3    2   10    5
 0.000711296699762087    3    2   10    7
 0.0127760616082163    3    2   10    8
 -0.0008885484551721325    3    2   10    9
 0.028592813244215    3    2   11    3
 0.004091452652733385    3    2   11    4
 -0.02101171125248098    3    2   11    5
 0.0117682422734134    3    2   11    7
 -0.01020179009455721    3    2   11    8
 -0.01662194680617517    3    2   11    9
 0.01679741585897505    3    2   12    3
 0.02697062064335603    3    2   12    4
 0.02241744136420696    3    2   12    5
 0.01973394607133807    3    2   12    7
 0.01489716714169907    3    2   12    8
 0.001901869338345527    3    2   12    9
 -0.03268909063622198    3    2   13    3
 0.01555669414367679    3    2   13    4
 -0.01070968928485325    3    2   13    5
 -0.01811312604385907    3    2   13    7
 0.01467279726657999    3    2   13    8
 -0.006023597087679926    3    2   13    9
 -0.003380081737810737    3    2   14    3
 -0.0193085003402684    3    2   14    4
 0.02398253244466717    3    2   14    5
 0.0003460113799371805    3    2   14    7
 -0.004016696512421923    3    2   14    8
 0.01933737874458166    3    2   14    9
 0.3313252223092557    3    3    1    1
 -0.001026592695680446    3    3    2    1
 0.2786330505213331    3    3    2    2
 0.2609740621106448    3    3    3    3
 0.2325179714628485    3    3    4    4
 0.2325179714628485    3    3    5    5
 -0.0009289271224824022    3    3    6    1
 0.03935605752696966    3    3    6    2
 0.2370138493894955    3    3    6    6
 0.04378559051022582    3    3    7    3
 0.01339660089437275    3    3    7    4
 0.01767786106280813    3    3    7    5
 0.2736498045958286    3    3    7    7
 -0.02091456075464591    3    3    8    3
 0.03925339041804672    3    3    8    4
 0.01649103900001856    3    3    8    5
 -0.008647206744868938    3    3    8    7
 0.2596768934179778    3    3    8    8
 -0.0106659901872318    3    3    9    3
 -0.02197539409090504    3    3    9    4
 0.04023374679580836    3    3    9    5
 -0.00440989525764951    3    3    9    7
 0.002106424081826557    3    3    9    8
 0.2566207137543171    3    3    9    9
 -0.0001721696064484224    3    3   10    1
 -0.003470932151971406    3    3   10    2
 -0.0002372267863940831    3    3   10    6
 0.2708159366772982    3    3   10   10
 0.0006883739019184074    3    3   11    1
 0.0138775894191428    3    3   11    2
 0.0009484875522357341    3    3   11    6
 -0.003761033444562821    3    3   11   10
 0.2832476481835056    3    3   11   11
 0.0004043989165469173    3    3   12    1
 0.008152665447867979    3    3   12    2
 0.0005572078450583714    3    3   12    6
 0.007110759791277991    3    3   12   10
 0.001706637648305677    3    3   12   11
 0.2866197876839405    3    3   12   12
 -0.0007869920556338873    3    3   13    1
 -0.01586572732315584    3    3   13    2
 -0.001084370233091186    3    3   13    6
 0.006312761088225732    3    3   13   10
 -0.009217620021904786    3    3   13   11
 -0.005273811703824975    3    3   13   12
 0.2853809006718739    3    3   13   13
 -8.137569517160699e-05    3    3   14    1
 -0.001640530652225016    3    3   14    2
 -0.0001121248695072504    3    3   14    6
 -0.002394660743572396    3    3   14   10
 -0.009696558089264026    3    3   14   11
 -0.0005694975236603318    3    3   14   12
 -0.006374337833047247    3    3   14   13
 0.2787333178463932    3    3   14   14
 0.002767512594927467    4    1    4    1
 0.005319316242772255    4    1    4    2
 0.001848224256792254    4    1    6    4
 0.002129071260514097    4    1    7    1
 0.001778988720481137    4    1    7    2
 0.001717812709324634    4    1    7    6
 0.00623839331153828    4    1    8    1
 0.005212616196074047    4    1    8    2
 0.005033364319491408    4    1    8    6
 -0.003492466511939625    4    1    9    1
 -0.002918201305248212    4    1    9    2
 -0.002817849957568785    4    1    9    6
 0.001655890891883551    4    1   10    3
 -0.001058538942795695    4    1   10    4
 -0.003040537577714391    4    1   10    5
 1.317077839120502e-05    4    1   10    7
 -0.002882651652740783    4    1   10    8
 -0.002682099464263957    4    1   10    9
 0.0003822433933967188    4    1   11    3
 -0.00358823618021095    4    1   11    4
 0.0004218111814705189    4    1   11    5
 -0.000574646387001928    4    1   11    7
 -0.003277355404639623    4    1   11    8
 0.002131009532678064    4    1   11    9
 0.002519726471683498    4    1   12    3
 -0.0005247252126211631    4    1   12    4
 0.001397702667509963    4    1   12    5
 0.002824737950891868    4    1   12    7
 -0.001096779900276295    4    1   12    8
 0.0009818338260165168    4    1   12    9
 0.001453381980490771    4    1   13    3
 0.0002456280544633747    4    1   13    4
 0.001689109143902148    4    1   13    5
 0.002161143081077346    4    1   13    7
 0.0002034107432444228    4    1   13    8
 0.001110218934426641    4    1   13    9
 -0.001803893951097086    4    1   14    3
 -0.002267082932323258    4    1   14    4
 0.0006115577132664432    4    1   14    5
 -0.002182214749296398    4    1   14    7
 -0.001002380062350211    4    1   14    8
 0.002145624344814741    4    1   14    9
 0.005319316242772256    4    2    4    1
 0.05400677416560273    4    2    4    2
 -0.008079619622008564    4    2    6    4
 0.003558917108249808    4    2    7    1
 0.009075023274371546    4    2    7    2
 0.01262803743610662    4    2    7    6
 0.01042798571197836    4    2    8    1
 0.02659073256346688    4    2    8    2
 0.03700142204739551    4    2    8    6
 -0.005837944013358292    4    2    9    1
 -0.01488640397746116    4    2    9    2
 -0.02071466496920955    4    2    9    6
 0.01772430681412053    4    2   10    3
 -0.01133037755613496    4    2   10    4
 -0.03254527286273797    4    2   10    5
 8.266605485375122e-05    4    2   10    7
 -0.01809288962062006    4    2   10    8
 -0.01683412892165213    4    2   10    9
 0.004091452652733386    4    2   11    3
 -0.03840772317265655    4    2   11    4
 0.004514977909870592    4    2   11    5
 -0.003606753400477185    4    2   11    7
 -0.02057023765854911    4    2   11    8
 0.01337522701314768    4    2   11    9
 0.02697062064335603    4    2   12    3
 -0.005616547990684989    4    2   12    4
 0.01496071452249007    4    2   12    5
 0.01772939574716584    4    2   12    7
 -0.006883911087538581    4    2   12    8
 0.006162454982383306    4    2   12    9
 0.01555669414367679    4    2   13    3
 0.002629150882346006    4    2   13    4
 0.01807986797669005    4    2   13    5
 0.0135643594615819    4    2   13    7
 0.001276702345103153    4    2   13    8
 0.006968260842826824    4    2   13    9
 -0.0193085003402684    4    2   14    3
 -0.024266377490516    4    2   14    4
 0.006545984761198051    4    2   14    5
 -0.01369661525004915    4    2   14    7
 -0.00629141291101518    4    2   14    8
 0.01346695650899696    4    2   14    9
 0.01422804532389806    4    3    4    3
 0.0003916041992455483    4    3    7    3
 0.001209227906815369    4    3    7    4
 0.005862697476492147    4    3    7    7
 0.001147439760543242    4    3    8    3
 -0.000577598023198916    4    3    8    4
 0.007188963429832782    4    3    8    7
 -0.008205358791984385    4    3    8    8
 -0.0006423761276406468    4    3    9    3
 -0.0002945629563955992    4    3    9    4
 -0.005522563654373214    4    3    9    7
 0.000204539616738421    4    3    9    8
 0.002342661315491952    4    3    9    9
 0.0004267138786318519    4    3   10    1
 0.008602534161448613    4    3   10    2
 0.0005879548906787619    4    3   10    6
 -0.007583183427967102    4    3   10   10
 9.850199779297128e-05    4    3   11    1
 0.001985796205414814    4    3   11    2
 0.0001357226334650588    4    3   11    6
 0.003299930530843715    4    3   11   10
 -0.00192665041184682    4    3   11   11
 0.000649319505949085    4    3   12    1
 0.01309025441012452    4    3   12    2
 0.0008946757962500006    4    3   12    6
 -0.006678937137831596    4    3   12   10
 -0.00308282114185424    4    3   12   11
 0.009088361086747997    4    3   12   12
 0.0003745284578040139    4    3   13    1
 0.007550478233855121    4    3   13    2
 0.0005160503313608491    4    3   13    6
 -0.00255769020764654    4    3   13   10
 -0.005022069997993601    4    3   13   11
 -0.00279468918182301    4    3   13   12
 -0.009435482542458649    4    3   13   13
 -0.0004648534443218049    4    3   14    1
 -0.009371426229835486    4    3   14    2
 -0.0006405061323858842    4    3   14    6
 -0.006226023394961483    4    3   14   10
 0.0003362837696540611    4    3   14   11
 -0.003253218111967815    4    3   14   12
 0.003665820584468974    4    3   14   13
 0.00985695529552421    4    3   14   14
 0.3313252223092554    4    4    1    1
 -0.001026592695680446    4    4    2    1
 0.278633050521333    4    4    2    2
 0.2325179714628484    4    4    3    3
 0.2609740621106444    4    4    4    4
 0.2325179714628484    4    4    5    5
 -0.0009289271224824582    4    4    6    1
 0.03935605752696964    4    4    6    2
 0.237013849389495    4    4    6    6
 0.04136713469659508    4    4    7    3
 0.01417980929286385    4    4    7    4
 0.01767786106280812    4    4    7    5
 0.2574450952961204    4    4    7    7
 -0.01975936470824816    4    4    8    3
 0.04154826993913326    4    4    8    4
 0.0164910390000186    4    4    8    5
 0.005563130118523483    4    4    8    7
 0.2718470131342429    4    4    8    8
 -0.01007686427444059    4    4    9    3
 -0.02326014634618635    4    4    9    4
 0.04023374679580838    4    4    9    5
 -0.003114431019373367    4    4    9    7
 -0.009125596686610995    4    4    9    8
 0.2606553033377596    4    4    9    9
 -0.0002727796017099997    4    4   10    1
 -0.005499225499251099    4    4   10    2
 -0.0003758539596064211    4    4   10    6
 0.2864715919424821    4    4   10   10
 -0.0009246685185660366    4    4   11    1
 -0.01864127912709199    4    4   11    2
 -0.001274070061866032    4    4   11    6
 0.005147512060965989    4    4   11   10
 0.2866221987663233    4    4   11   11
 -0.0001352187706273345    4    4   12    1
 -0.00272600482862273    4    4   12    2
 -0.0001863134561191482    4    4   12    6
 0.0007815440036651978    4    4   12   10
 0.005616446707088985    4    4   12   11
 0.2790668952405397    4    4   12   12
 6.329698432101356e-05    4    4   13    1
 0.001276064588487351    4    4   13    2
 8.721481386093821e-05    4    4   13    6
 -0.004886689938441904    4    4   13   10
 0.0006321110936102206    4    4   13   11
 0.00963569817928041    4    4   13   12
 0.2732597729074546    4    4   13   13
 -0.0005842146701654551    4    4   14    1
 -0.01177774361085103    4    4   14    2
 -0.0008049700038615345    4    4   14    6
 -0.003999901036374664    4    4   14   10
 0.01259330551644271    4    4   14   11
 -0.004088552573881412    4    4   14   12
 -0.003507659473383054    4    4   14   13
 0.2793771322062107    4    4   14   14
 0.002767512594927469    5    1    5    1
 0.005319316242772258    5    1    5    2
 0.001848224256792255    5    1    6    5
 0.002809475794116965    5    1    7    1
 0.002347514543497253    5    1    7    2
 0.002266788019349196    5    1    7    6
 0.002620858639276533    5    1    8    1
 0.00218991165007914    5    1    8    2
 0.002114604787256103    5    1    8    6
 0.006394197653655447    5    1    9    1
 0.005342801677588414    5    1    9    2
 0.0051590729719074    5    1    9    6
 0.0005852404902705108    5    1   10    3
 -0.00304053757771439    5    1   10    4
 0.001726654271247633    5    1   10    5
 0.0003243917682327624    5    1   10    7
 -0.002373576425102254    5    1   10    8
 0.003021143786586172    5    1   10    9
 -0.001963016193002909    5    1   11    3
 0.0004218111814705204    5    1   11    4
 0.0009169565910592294    5    1   11    5
 -0.001375003056286353    5    1   11    7
 0.001632732931766523    5    1   11    8
 0.00109836268568613    5    1   11    9
 0.002094346332616549    5    1   12    3
 0.001397702667509963    5    1   12    4
 -0.001044571021062734    5    1   12    5
 0.00201338981827475    5    1   12    7
 -8.675943163519059e-05    5    1   12    8
 -0.002174439297009153    5    1   12    9
 -0.00100055122762618    5    1   13    3
 0.001689109143902147    5    1   13    4
 0.002808345678678735    5    1   13    5
 0.0007155857236911438    5    1   13    7
 0.003067406778033899    5    1   13    8
 0.001991564878174687    5    1   13    9
 0.002240564748506168    5    1   14    3
 0.000611557713266444    5    1   14    4
 0.002582866597216922    5    1   14    5
 0.003395311878374011    5    1   14    7
 0.0005173372269114884    5    1   14    8
 0.001573284619577641    5    1   14    9
 0.00531931624277226    5    2    5    1
 0.05400677416560273    5    2    5    2
 -0.008079619622008561    5    2    6    5
 0.004696269051361978    5    2    7    1
 0.01197520190763298    5    2    7    2
 0.01666368156008909    5    2    7    6
 0.004380980018195037    5    2    8    1
 0.01117123395133766    5    2    8    2
 0.01554494752023279    5    2    8    6
 0.01068842543937691    5    2    9    1
 0.02725483810900883    5    2    9    2
 0.03792553534573969    5    2    9    6
 0.006264290757588354    5    2   10    3
 -0.03254527286273798    5    2   10    4
 0.01848174310005015    5    2   10    5
 0.002036036664677399    5    2   10    7
 -0.01489769193050076    5    2   10    8
 0.01896213196858338    5    2   10    9
 -0.02101171125248099    5    2   11    3
 0.004514977909870594    5    2   11    4
 0.009814909928441572    5    2   11    5
 -0.008630171634422352    5    2   11    7
 0.010247806628427    5    2   11    8
 0.006893845399818744    5    2   11    9
 0.02241744136420696    5    2   12    3
 0.01496071452249007    5    2   12    4
 -0.0111808678682901    5    2   12    5
 0.0126369898737817    5    2   12    7
 -0.0005445433611899536    5    2   12    8
 -0.01364781282196189    5    2   12    9
 -0.01070968928485325    5    2   13    3
 0.01807986797669005    5    2   13    4
 0.03005993975387596    5    2   13    5
 0.00449135555471143    5    2   13    7
 0.01925250045517717    5    2   13    8
 0.01250000619355392    5    2   13    9
 0.02398253244466717    5    2   14    3
 0.00654598476119805    5    2   14    4
 0.02764645922832674    5    2   14    5
 0.02131058845927271    5    2   14    7
 0.003247053917960489    5    2   14    8
 0.009874680812290699    5    2   14    9
 0.01422804532389806    5    3    5    3
 0.0005167523225076432    5    3    7    3
 0.001209227906815369    5    3    7    5
 0.00773628715670994    5    3    7    7
 0.0004820596040180772    5    3    8    3
 -0.0005775980231989136    5    3    8    5
 0.001760799860727626    5    3    8    7
 -0.003447215397362252    5    3    8    8
 0.001176097154856593    5    3    9    3
 -0.0002945629563956146    5    3    9    5
 0.00786139784839575    5    3    9    7
 -0.005084148133887763    5    3    9    8
 -0.004289071759348021    5    3    9    9
 0.0001508132213057057    5    3   10    1
 0.003040388309937671    5    3   10    2
 0.0002078005321270771    5    3   10    6
 -0.007218135348289358    5    3   10   10
 -0.000505858361586006    5    3   11    1
 -0.01019808366756321    5    3   11    2
 -0.0006970054469257924    5    3   11    6
 -0.0003610459128059169    5    3   11   10
 -0.01125157000802452    5    3   11   11
 0.0005397014085708553    5    3   12    1
 0.01088035809638688    5    3   12    2
 0.0007436366581111718    5    3   12    6
 -0.00230739295112199    5    3   12   10
 0.006606294127018839    5    3   12   11
 0.007554064270638204    5    3   12   12
 -0.0002578364898333247    5    3   13    1
 -0.00519797298126503    5    3   13    2
 -0.0003552643417153412    5    3   13    6
 -0.002309120681608527    5    3   13   10
 -0.001511650519078766    5    3   13   11
 0.004289754406500314    5    3   13   12
 0.004415081749836191    5    3   13   13
 0.000577381081596107    5    3   14    1
 0.01163997874765608    5    3   14    2
 0.0007955542289795022    5    3   14    6
 0.008334211402953729    5    3   14   10
 0.002503057342557574    5    3   14   11
 0.00404072856746587    5    3   14   12
 -0.004068059637020022    5    3   14   13
 0.006500559335839077    5    3   14   14
 0.01422804532389804    5    4    5    4
 0.00051675232250765    5    4    7    4
 0.0003916041992455554    5    4    7    5
 0.00250536935185005    5    4    7    7
 0.0004820596040180719    5    4    8    4
 0.001147439760543242    5    4    8    5
 0.004839076670586482    5    4    8    7
 0.006848139798303916    5    4    8    8
 0.001176097154856595    5    4    9    4
 -0.0006423761276406559    5    4    9    5
 0.0007961673829191482    5    4    9    7
 0.00643690763564888    5    4    9    8
 -0.009353509150154257    5    4    9    9
 -0.0007835296330645225    5    4   10    1
 -0.01579592502722437    5    4   10    2
 -0.001079599475951127    5    4   10    6
 -0.001736707092731289    5    4   10   10
 0.0001086983968435446    5    4   11    1
 0.00219135518896031    5    4   11    2
 0.0001497719132970637    5    4   11    6
 0.004395251346262632    5    4   11   10
 -0.003068727070122003    5    4   11   11
 0.0003601802083402031    5    4   12    1
 0.007261218117532751    5    4   12    2
 0.0004962803546448948    5    4   12    6
 0.00870366973045858    5    4   12   10
 -0.006981675958104117    5    4   12   11
 0.005041351383570722    5    4   12   12
 0.0004352740375346542    5    4   13    1
 0.008775106611224291    5    4   13    2
 0.0005997496495181459    5    4   13    6
 -0.007326711162500228    5    4   13   10
 -0.005279875612060192    5    4   13   11
 0.001749731301618339    5    4   13   12
 0.00605581330166877    5    4   13   13
 0.0001575950233884745    5    4   14    1
 0.003177109159702977    5    4   14    2
 0.0002171449521280455    5    4   14    6
 0.001718877323711393    5    4   14   10
 0.002368069610149473    5    4   14   11
 0.001102908864516131    5    4   14   12
 0.006099736600849965    5    4   14   13
 -0.00629173052238651    5    4   14   14
 0.3313252223092555    5    5    1    1
 -0.001026592695680453    5    5    2    1
 0.2786330505213331    5    5    2    2
 0.2325179714628485    5    5    3    3
 0.2325179714628484    5    5    4    4
 0.2609740621106446    5    5    5    5
 -0.0009289271224824441    5    5    6    1
 0.03935605752696955    5    5    6    2
 0.2370138493894949    5    5    6    6
 0.0413671346965951    5    5    7    3
 0.01339660089437275    5    5    7    4
 0.01871136570782344    5    5    7    5
 0.258852511876174    5    5    7    7
 -0.01975936470824816    5    5    8    3
 0.03925339041804678    5    5    8    4
 0.01745515820805476    5    5    8    5
 0.003084076626345238    5    5    8    7
 0.2584235052159023    5    5    8    8
 -0.01007686427444059    5    5    9    3
 -0.02197539409090505    5    5    9    4
 0.04258594110552157    5    5    9    5
 0.00752432627702287    5    5    9    7
 0.00701917260478448    5    5    9    8
 0.2726713946760468    5    5    9    9
 0.0004449492081584229    5    5   10    1
 0.008970157651222509    5    5   10    2
 0.0006130807460005119    5    5   10    6
 0.2855910260180258    5    5   10   10
 0.0002362946166476295    5    5   11    1
 0.004763689707949191    5    5   11    2
 0.0003255825096302936    5    5   11    6
 -0.001386478616403196    5    5   11   10
 0.2730087076879772    5    5   11   11
 -0.0002691801459195736    5    5   12    1
 -0.005426660619245289    5    5   12    2
 -0.0003708943889391926    5    5   12    6
 -0.007892303794943186    5    5   12   10
 -0.00732308435539466    5    5   12   11
 0.2771918717133263    5    5   12   12
 0.0007236950713128737    5    5   13    1
 0.01458966273466848    5    5   13    2
 0.000997155419230251    5    5   13    6
 -0.001426071149783978    5    5   13   10
 0.00858550892829495    5    5   13   11
 -0.00436188647545544    5    5   13   12
 0.2842378810584787    5    5   13   13
 0.000665590365337062    5    5   14    1
 0.01341827426307604    5    5   14    2
 0.0009170948733687836    5    5   14    6
 0.00639456177994706    5    5   14   10
 -0.002896747427178664    5    5   14   11
 0.004658050097541742    5    5   14   12
 0.00988199730643028    5    5   14   13
 0.284768104585203    5    5   14   14
 -0.1576659020725206    6    1    1    1
 0.02050397579655458    6    1    2    1
 -0.004621777852748713    6    1    2    2
 -0.0009289271224824194    6    1    3    3
 -0.0009289271224824196    6    1    4    4
 -0.0009289271224824201    6    1    5    5
 0.01687270195527121    6    1    6    1
 -0.003735319958420081    6    1    6    2
 -0.003252275739615401    6    1    6    6
 -0.00203808720180863    6    1    7    3
 -0.0006600273630459232    6    1    7    4
 -0.0008709576491510273    6    1    7    5
 -0.006222560391105017    6    1    7    7
 0.0009735097347959249    6    1    8    3
 -0.001933946675915253    6    1    8    4
 -0.0008124849781590311    6    1    8    5
 -0.006222560391105015    6    1    8    8
 0.0004964696796800463    6    1    9    3
 0.001082689670915522    6    1    9    4
 -0.001982247139589666    6    1    9    5
 -0.006222560391105022    6    1    9    9
 -0.0005190227053236664    6    1   10   10
 -0.0005190227053236675    6    1   11   11
 -0.0005190227053236952    6    1   12   12
 -0.0005190227053236681    6    1   13   13
 -0.000519022705323668    6    1   14   14
 0.1824664924044937    6    2    1    1
 -0.004614989735645193    6    2    2    1
 0.07424455182673857    6    2    2    2
 0.03935605752696968    6    2    3    3
 0.03935605752696967    6    2    4    4
 0.03935605752696969    6    2    5    5
 -0.003735319958420037    6    2    6    1
 0.04460884785688911    6    2    6    2
 0.04626661662324464    6    2    6    6
 0.03837226576478063    6    2    7    3
 0.01242672313743502    6    2    7    4
 0.01639803162172541    6    2    7    5
 0.07970327714962197    6    2    7    7
 -0.01832884001972058    6    2    8    3
 0.03641155086851982    6    2    8    4
 0.0152971322739005    6    2    8    5
 0.07970327714962194    6    2    8    8
 -0.009347326491198418    6    2    9    3
 -0.02038443485454665    6    2    9    4
 0.03732093208981004    6    2    9    5
 0.07970327714962201    6    2    9    9
 0.06741590812622462    6    2   10   10
 0.06741590812622476    6    2   11   11
 0.06741590812622469    6    2   12   12
 0.06741590812622483    6    2   13   13
 0.06741590812622482    6    2   14   14
 0.001848224256792252    6    3    3    1
 -0.008079619622008588    6    3    3    2
 0.02005983484624936    6    3    6    3
 0.004030950709184718    6    3    7    1
 0.01136545533265509    6    3    7    2
 -0.004456014485728597    6    3    7    6
 -0.001925417986233117    6    3    8    1
 -0.005428806675646306    6    3    8    2
 0.002128453324469566    6    3    8    6
 -0.0009819230529582135    6    3    9    1
 -0.002768578284292159    6    3    9    2
 0.00108546684480238    6    3    9    6
 0.000870022431295705    6    3   10    3
 -0.002156307688756442    6    3   10    4
 -0.0007621024882300255    6    3   10    5
 0.0001614659326741221    6    3   10    7
 0.002900194397306767    6    3   10    8
 -0.0002017024753362557    6    3   10    9
 -0.003478550878647557    6    3   11    3
 -0.0004977588633391958    6    3   11    4
 0.002556247474319242    6    3   11    5
 0.00267141716705191    6    3   11    7
 -0.002315829038872718    6    3   11    8
 -0.003773218889974516    6    3   11    9
 -0.002043543781305529    6    3   12    3
 -0.00328119780783018    6    3   12    4
 -0.002727266103144626    6    3   12    5
 0.004479649643834079    6    3   12    7
 0.003381690070460601    6    3   12    8
 0.0004317285693058965    6    3   12    9
 0.00397689671119808    6    3   13    3
 -0.001892599780935753    6    3   13    4
 0.00130292177805924    6    3   13    5
 -0.004111719893110698    6    3   13    7
 0.003330757609840143    6    3   13    8
 -0.001367369934572632    6    3   13    9
 0.0004112147412196683    6    3   14    3
 0.002349037859630569    6    3   14    4
 -0.002917672304402199    6    3   14    5