 &FCI NORB=   9,NELEC=12,MS2=0,
  ORBSYM=1,1,1,1,1,1,1,1,1,
  ISYM=1,
 &END
 0.7468238535788715    1    1    1    1
 0.07818736329557738    2    1    1    1
 0.05397454556035691    2    1    2    1
 0.3887568422284472    2    2    1    1
 -0.05829345407433682    2    2    2    1
 0.5989146106175948    2    2    2    2
 -0.001021704365446421    3    1    1    1
 0.01943440583731923    3    1    2    1
 0.002417806887481356    3    1    2    2
 0.03579208342458676    3    1    3    1
 0.04217198080651698    3    2    1    1
 0.0295279265342172    3    2    2    1
 -0.09450138683703745    3    2    2    2
 -0.03139797792942139    3    2    3    1
 0.148886970228827    3    2    3    2
 0.3942689763626863    3    3    1    1
 -0.0513296670432891    3    3    2    1
 0.5265825244400542    3    3    2    2
 -0.02816849990616545    3    3    3    1
 -0.01619958274978777    3    3    3    2
 0.539856977809378    3    3    3    3
 -0.03579073547417726    4    1    1    1
 0.04906749620043045    4    1    2    1
 -0.03535751206236168    4    1    2    2
 0.04027654245103295    4    1    3    1
 0.01612237198222705    4    1    3    2
 -0.04632226332245955    4    1    3    3
 0.1276225142601761    4    1    4    1
 0.1078366099358965    4    2    1    1
 0.04334193370156817    4    2    2    1
 -0.04915943764019993    4    2    2    2
 0.01742583450294853    4    2    3    1
 0.003253269081910961    4    2    3    2
 -0.04717596895998348    4    2    3    3
 0.01501644874518392    4    2    4    1
 0.07305999037199946    4    2    4    2
 0.09869706880708638    4    3    1    1
 0.03087914322552324    4    3    2    1
 -0.01135243666078751    4    3    2    2
 0.01161126508942807    4    3    3    1
 -0.02216869103703337    4    3    3    2
 -0.03075878450428551    4    3    3    3
 0.002156683707791957    4    3    4    1
 0.05196405083804037    4    3    4    2
 0.05969010562485137    4    3    4    3
 0.6301155550979711    4    4    1    1
 0.03020644292023856    4    4    2    1
 0.4349200928806392    4    4    2    2
 -0.01307461094173135    4    4    3    1
 0.04341110209868029    4    4    3    2
 0.4373746394347607    4    4    3    3
 -0.04859476779417354    4    4    4    1
 0.06022256872028492    4    4    4    2
 0.05472199759583373    4    4    4    3
 0.6042835069752645    4    4    4    4
 -4.370917148949702e-05    5    1    1    1
 -3.323302132466575e-05    5    1    2    1
 3.911775968727856e-05    5    1    2    2
 0.0001202679051622479    5    1    3    1
 -7.511884445720199e-07    5    1    3    2
 3.151532740326027e-06    5    1    3    3
 -0.0001330316571490364    5    1    4    1
 -5.097702253929591e-05    5    1    4    2
 -4.895827639295947e-05    5    1    4    3
 -3.767826256367196e-05    5    1    4    4
 0.1149086219509722    5    1    5    1
 -9.626622970090194e-06    5    2    1    1
 -3.543160039996083e-05    5    2    2    1
 0.0001473920856327024    5    2    2    2
 1.851399558124341e-05    5    2    3    1
 -0.0001118252166003089    5    2    3    2
 0.0001685650529038417    5    2    3    3
 -4.384954742419128e-05    5    2    4    1
 -2.392642748762704e-05    5    2    4    2
 1.311727756379184e-05    5    2    4    3
 -3.283025671405132e-06    5    2    4    4
 0.01183409780109724    5    2    5    1
 0.02018153608656671    5    2    5    2
 0.0004337862626957313    5    3    1    1
 8.292475038135911e-05    5    3    2    1
 -5.117130044028034e-05    5    3    2    2
 -5.848374325143587e-05    5    3    3    1
 0.0002264945698046552    5    3    3    2
 4.873241570753267e-05    5    3    3    3
 -5.287609244450365e-05    5    3    4    1
 0.0001063594813861534    5    3    4    2
 8.004107253663456e-05    5    3    4    3
 0.0003104379573391518    5    3    4    4
 -0.003273248650559201    5    3    5    1
 0.00758926904469653    5    3    5    2
 0.01150206512276372    5    3    5    3
 -0.000418460088297008    5    4    1    1
 -9.163807067279453e-05    5    4    2    1
 -9.408961386437083e-05    5    4    2    2
 -4.687012494339685e-05    5    4    3    1
 1.744639950076448e-06    5    4    3    2
 -5.052979544458249e-05    5    4    3    3
 -2.046424054048777e-05    5    4    4    1
 -0.000114471586368967    5    4    4    2
 -6.951096992531642e-05    5    4    4    3
 -0.0003302183369202515    5    4    4    4
 -0.006640093911440925    5    4    5    1
 0.01049648386218307    5    4    5    2
 0.008113095596920456    5    4    5    3
 0.02626127443540895    5    4    5    4
 0.637756657098794    5    5    1    1
 0.04680397064004421    5    5    2    1
 0.3893127564802231    5    5    2    2
 -0.007680635562203437    5    5    3    1
 0.03184425130084664    5    5    3    2
 0.3884914770892284    5    5    3    3
 -0.03912942927268585    5    5    4    1
 0.07113168491613063    5    5    4    2
 0.06572065582091456    5    5    4    3
 0.5453176203647058    5    5    4    4
 5.646311765470945e-05    5    5    5    1
 -2.881062151316668e-05    5    5    5    2
 0.000365750083612805    5    5    5    3
 -0.0003450634753713301    5    5    5    4
 0.5989289743940122    5    5    5    5
 -0.003876856635074435    6    1    1    1
 0.0006939509255359153    6    1    2    1
 0.002359883021018232    6    1    2    2
 0.03254685259851045    6    1    3    1
 -0.006448257727318862    6    1    3    2
 -0.01092962233242825    6    1    3    3
 -0.01121773865005795    6    1    4    1
 0.001027274656642011    6    1    4    2
 -0.004331136701235262    6    1    4    3
 -0.001454669129157215    6    1    4    4
 -0.0001843652208042173    6    1    5    1
 -7.65033262584732e-05    6    1    5    2
 -3.157245856777975e-05    6    1    5    3
 -4.73674612114356e-05    6    1    5    4
 -0.003805559086769428    6    1    5    5
 0.1292092200512776    6    1    6    1
 0.002914087852414729    6    2    1    1
 -0.001073142810135072    6    2    2    1
 0.01843860187337647    6    2    2    2
 0.0147408056564159    6    2    3    1
 -0.03635940042622829    6    2    3    2
 0.002633196369607791    6    2    3    3
 -0.003599476045804498    6    2    4    1
 0.006386716292581667    6    2    4    2
 0.01499393228006929    6    2    4    3
 -0.007514295553301365    6    2    4    4
 -0.0001224405433055951    6    2    5    1
 7.93993729139332e-05    6    2    5    2
 -2.026771239092955e-05    6    2    5    3
 -2.702896954474096e-05    6    2    5    4
 0.000206899436840189    6    2    5    5
 0.03363147092257156    6    2    6    1
 0.02358567642579202    6    2    6    2
 0.08683244640705645    6    3    1    1
 0.02743742299652557    6    3    2    1
 -0.03636889836285163    6    3    2    2
 0.0006136184872105359    6    3    3    1
 0.01995959969049003    6    3    3    2
 -0.02982149641518238    6    3    3    3
 -0.005408848270622591    6    3    4    1
 0.03875649335414268    6    3    4    2
 0.0338279644207445    6    3    4    3
 0.0435571363004316    6    3    4    4
 -5.812706559021681e-05    6    3    5    1
 -1.377299704192133e-05    6    3    5    2
 0.0001602552529569762    6    3    5    3
 -9.444471477615223e-05    6    3    5    4
 0.06057743101780872    6    3    5    5
 0.006150575279269653    6    3    6    1
 0.004623040583367694    6    3    6    2
 0.03857575863375212    6    3    6    3
 -0.03338007972671608    6    4    1    1
 -0.01045740925413996    6    4    2    1
 0.005406218645646262    6    4    2    2
 -0.008872089722694843    6    4    3    1
 0.01791828653007843    6    4    3    2
 0.02009549208154903    6    4    3    3
 0.0003102801107639739    6    4    4    1
 -0.02123391837598388    6    4    4    2
 -0.0141941677387789    6    4    4    3
 -0.01729145045404863    6    4    4    4
 -4.229739597012847e-05    6    4    5    1
 -3.950148898876451e-05    6    4    5    2
 -4.872431493816e-05    6    4    5    3
 1.173728533213149e-05    6    4    5    4
 -0.02246840476441566    6    4    5    5
 0.00790693186371043    6    4    6    1
 0.00408467760521341    6    4    6    2
 -0.004253999759235768    6    4    6    3
 0.03352983329542027    6    4    6    4
 -0.0005953754749696262    6    5    1    1
 -0.0002454011318701867    6    5    2    1
 0.0001940142446741854    6    5    2    2
 -6.121764974880717e-05    6    5    3    1
 -0.0001008474710159122    6    5    3    2
 0.0001738560714608847    6    5    3    3
 -9.971122142539321e-05    6    5    4    1
 -0.0002335764644694658    6    5    4    2
 -0.0001933453091828019    6    5    4    3
 -0.0002991360049644869    6    5    4    4
 8.781892944790578e-05    6    5    5    1
 -0.0007552404431778333    6    5    5    2
 0.00599519481362609    6    5    5    3
 -0.002428791262225504    6    5    5    4
 -0.0004404660345084548    6    5    5    5
 -1.140765057438637e-05    6    5    6    1
 -1.532713719444174e-05    6    5    6    2
 -0.000157244446910077    6    5    6    3
 5.633548055502001e-05    6    5    6    4
 0.02571123346112782    6    5    6    5
 0.6861627904480354    6    6    1    1
 0.07940071488933864    6    6    2    1
 0.3671672503640972    6    6    2    2
 0.006453300385439904    6    6    3    1
 0.03757044319550538    6    6    3    2
 0.375667492262106    6    6    3    3
 -0.009028814105695619    6    6    4    1
 0.08871639179797583    6    6    4    2
 0.07752843125390993    6    6    4    3
 0.5617655917829431    6    6    4    4
 -1.403300258868244e-05    6    6    5    1
 -2.132053171807355e-05    6    6    5    2
 0.0003058011187782266    6    6    5    3
 -0.0003328559549378562    6    6    5    4
 0.5728288967855549    6    6    5    5
 -0.003918829705795005    6    6    6    1
 0.002766652489054589    6    6    6    2
 0.08263463780068964    6    6    6    3
 -0.03288757967454648    6    6    6    4
 -0.0006364508013742548    6    6    6    5
 0.6860976055824107    6    6    6    6
 -0.0001849724397464868    7    1    1    1
 1.718693209240382e-05    7    1    2    1
 -1.756748917960534e-05    7    1    2    2
 0.0001714575251654556    7    1    3    1
 5.404157563979974e-05    7    1    3    2
 1.985263411159531e-05    7    1    3    3
 5.630111188840266e-05    7    1    4    1
 -3.133364997085511e-05    7    1    4    2
 -2.779778695178102e-05    7    1    4    3
 -0.000142103048275909    7    1    4    4
 0.05066433177630929    7    1    5    1
 0.02421874894818026    7    1    5    2
 0.008726627464699517    7    1    5    3
 0.01127560480083965    7    1    5    4
 -0.0001561582496495345    7    1    5    5
 0.0002802608045121879    7    1    6    1
 0.0001118823646508231    7    1    6    2
 2.427318567519969e-06    7    1    6    3
 3.460377683761329e-05    7    1    6    4
 -0.0001976212566210188    7    1    6    5
 -0.0001455106115188994    7    1    6    6
 0.04574520136290818    7    1    7    1
 0.0001181132495741881    7    2    1    1
 5.420836558928569e-05    7    2    2    1
 -3.854649386522056e-05    7    2    2    2
 0.0001144298342908721    7    2    3    1
 3.558645960695472e-05    7    2    3    2
 -0.0001388685350213539    7    2    3    3
 3.306974428012756e-06    7    2    4    1
 5.926731300096567e-05    7    2    4    2
 1.755275873882939e-05    7    2    4    3
 6.383063678236583e-05    7    2    4    4
 0.04024313832398189    7    2    5    1
 -0.01409294703078859    7    2    5    2
 -0.007167841599468219    7    2    5    3
 -0.001429459903148977    7    2    5    4
 0.0001269443359572365    7    2    5    5
 0.0001327333712719394    7    2    6    1
 -9.817121837898988e-05    7    2    6    2
 -6.149432636834683e-07    7    2    6    3
 2.42850427100004e-05    7    2    6    4
 0.00182930720947613    7    2    6    5
 0.0001407198279466252    7    2    6    6
 3.298487333771367e-05    7    2    7    1
 0.04490806422749639    7    2    7    2
 0.0003115239580003328    7    3    1    1
 0.0002069990873420182    7    3    2    1
 -0.0001062974437440597    7    3    2    2
 0.0002030107602676486    7    3    3    1
 -0.0002247002466100362    7    3    3    2
 -0.0003372025772755998    7    3    3    3
 0.0001175849869067874    7    3    4    1
 0.0001645266303976829    7    3    4    2
 0.0002079979333077947    7    3    4    3
 4.250670289360552e-05    7    3    4    4
 0.01839748673354075    7    3    5    1
 -0.00580176555802763    7    3    5    2
 -0.00793703386855581    7    3    5    3
 0.00154901490906437    7    3    5    4
 0.0001806690802747335    7    3    5    5
 8.578589569603035e-05    7    3    6    1
 3.734258275258526e-05    7    3    6    2
 4.333182720444904e-05    7    3    6    3
 -5.02233817793187e-05    7    3    6    4
 0.001705068736922874    7    3    6    5
 0.0003481381668520119    7    3    6    6
 -0.0005544918119614763    7    3    7    1
 0.01675446892248416    7    3    7    2
 0.01936110451799966    7    3    7    3
 0.0001642463758417982    7    4    1    1
 -2.510996317896981e-06    7    4    2    1
 0.0001139222144161051    7    4    2    2
 3.724218567881366e-05    7    4    3    1
 -3.600289719646188e-05    7    4    3    2
 0.0001088116807558291    7    4    3    3
 -7.480948347788259e-05    7    4    4    1
 3.659331698127292e-05    7    4    4    2
 5.538171097079617e-05    7    4    4    3
 0.0001398037771150655    7    4    4    4
 0.02125588556176322    7    4    5    1
 0.004370993255737306    7    4    5    2
 0.003298142247330046    7    4    5    3
 0.002937422185558353    7    4    5    4
 9.306894733416462e-05    7    4    5    5
 4.939427385292992e-05    7    4    6    1
 4.848796914154781e-05    7    4    6    2
 4.903873457830771e-05    7    4    6    3
 8.737059329057883e-06    7    4    6    4
 -0.001254108392459079    7    4    6    5
 0.0001104031210954995    7    4    6    6
 0.007451947455369996    7    4    7    1
 0.007396078640568298    7    4    7    2
 0.003129016139873171    7    4    7    3
 0.01690115150326529    7    4    7    4
 0.1355542681363194    7    5    1    1
 0.07173759305390025    7    5    2    1
 -0.06157488637137622    7    5    2    2
 0.02601004195401238    7    5    3    1
 0.01314517364063546    7    5    3    2
 -0.05520615021996519    7    5    3    3
 0.04244804958527681    7    5    4    1
 0.055347799375273    7    5    4    2
 0.04612129975995117    7    5    4    3
 0.05208849542063498    7    5    4    4
 -0.0001062622398329887    7    5    5    1
 -2.123885055962301e-05    7    5    5    2
 0.000124449917037136    7    5    5    3
 -0.000156265786388711    7    5    5    4
 0.09038053459213474    7    5    5    5
 0.001625892033556446    7    5    6    1
 0.005331844280939207    7    5    6    2
 0.0361678862414241    7    5    6    3
 -0.01815897484511709    7    5    6    4
 -0.0003423314159580419    7    5    6    5
 0.1275083828008421    7    5    6    6
 -8.064934566177001e-05    7    5    7    1
 6.133199607380906e-05    7    5    7    2
 0.0004046349016293583    7    5    7    3
 1.605159936812211e-05    7    5    7    4
 0.1350830831029919    7    5    7    5
 0.0007737767251326018    7    6    1    1
 0.0003198067053678343    7    6    2    1
 -0.0002441037192329676    7    6    2    2
 7.733483917338957e-05    7    6    3    1
 0.000118856637306494    7    6    3    2
 -0.0001517826717009885    7    6    3    3
 0.0001274948523459695    7    6    4    1
 0.0002893861562170573    7    6    4    2
 0.000219635921427009    7    6    4    3
 0.0003816524191463394    7    6    4    4
 -0.001012422819004095    7    6    5    1
 0.002450017537335601    7    6    5    2
 0.003267969428538233    7    6    5    3
 -0.001414072769229332    7    6    5    4
 0.0003931238083222626    7    6    5    5
 -2.32140365982919e-05    7    6    6    1
 2.891188064961248e-05    7    6    6    2
 0.000261383299655644    7    6    6    3
 -8.721677592484128e-05    7    6    6    4
 0.01467555468881054    7    6    6    5
 0.0008285277444330041    7    6    6    6
 0.001315667213925067    7    6    7    1
 -0.002992677396783373    7    6    7    2
 -0.0002614503036911047    7    6    7    3
 -0.0002483382114526059    7    6    7    4
 0.0005369347856899461    7    6    7    5
 0.01140995626863305    7    6    7    6
 0.5124001847124644    7    7    1    1
 -0.01572562573248214    7    7    2    1
 0.4838308888709342    7    7    2    2
 -0.01989107119524708    7    7    3    1
 0.007994486511191416    7    7    3    2
 0.4607458441911528    7    7    3    3
 -0.0518540750714981    7    7    4    1
 0.01122659225426733    7    7    4    2
 0.01967305702364574    7    7    4    3
 0.5001771618309124    7    7    4    4
 -0.0001214840838378084    7    7    5    1
 0.0001123390828522819    7    7    5    2
 0.000353879180622412    7    7    5    3
 -0.0001482058085757635    7    7    5    4
 0.508909481419484    7    7    5    5
 -0.003573332939485531    7    7    6    1
 -0.00146117760769822    7    7    6    2
 0.01709344693321722    7    7    6    3
 -0.003512685805589825    7    7    6    4
 7.131772840979522e-05    7    7    6    5
 0.4593129553684102    7    7    6    6
 -4.051093255243937e-05    7    7    7    1
 -0.0001305356384394423    7    7    7    2
 -0.0002622605637815525    7    7    7    3
 7.837404381700853e-05    7    7    7    4
 -0.02681195491180036    7    7    7    5
 3.733679181576849e-05    7    7    7    6
 0.5536021878769491    7    7    7    7
 0.010038134679414    8    1    1    1
 0.002733679852865788    8    1    2    1
 -0.004530848323906848    8    1    2    2
 -0.001783798905849481    8    1    3    1
 0.009520908722805315    8    1    3    2
 0.009914045394217284    8    1    3    3
 -0.007105227393622237    8    1    4    1
 -0.004780461947998903    8    1    4    2
 0.004134703146844626    8    1    4    3
 -0.0003091263342520459    8    1    4    4
 2.487054287526353e-05    8    1    5    1
 -2.951634121991325e-05    8    1    5    2
 -7.837017220256435e-06    8    1    5    3
 -4.655341822970009e-05    8    1    5    4
 0.005639168634733691    8    1    5    5
 0.03123857999284936    8    1    6    1
 0.01344967009746371    8    1    6    2
 0.006768822432371323    8    1    6    3
 0.01087041984030994    8    1    6    4
 -2.662117284859847e-05    8    1    6    5
 0.01142433356656094    8    1    6    6
 9.757343484965083e-05    8    1    7    1
 5.881686340344806e-05    8    1    7    2
 3.268482249599546e-05    8    1    7    3
 5.306403833052124e-05    8    1    7    4
 0.008123782122865141    8    1    7    5
 2.093216748590371e-05    8    1    7    6
 -0.001247506774695026    8    1    7    7
 0.02535814889545869    8    1    8    1
 0.01514294525930998    8    2    1    1
 -0.001862413628534224    8    2    2    1
 -0.01166904685533381    8    2    2    2
 0.0003286838726730898    8    2    3    1
 0.0305063156086486    8    2    3    2
 -0.02093597734278308    8    2    3    3
 -0.01508351024675642    8    2    4    1
 0.005628464179290138    8    2    4    2
 -0.01075416996148615    8    2    4    3
 0.02405249029631952    8    2    4    4
 -5.421756767758482e-05    8    2    5    1
 -1.876041759373609e-05    8    2    5    2
 8.879462917338557e-05    8    2    5    3
 2.508245432589169e-05    8    2    5    4
 0.01899220765728607    8    2    5    5
 0.02395781431677983    8    2    6    1
 -0.01124938829209898    8    2    6    2
 0.01202721969182652    8    2    6    3
 0.003583134021931816    8    2    6    4
 -1.223638550076088e-05    8    2    6    5
 0.007396567034351653    8    2    6    6
 5.532635063513908e-05    8    2    7    1
 2.524852122778595e-05    8    2    7    2
 -9.387015986401587e-05    8    2    7    3
 -1.985185199051875e-05    8    2    7    4
 -0.01388785569461115    8    2    7    5
 9.124269082078214e-07    8    2    7    6
 0.02274927642319356    8    2    7    7
 -0.01233636535131367    8    2    8    1
 0.06901348883504502    8    2    8    2
 -0.05003520663661224    8    3    1    1
 0.005375297437295141    8    3    2    1
 0.005270327151248986    8    3    2    2
 0.02639211880890183    8    3    3    1
 -0.05769051411632571    8    3    3    2
 -0.01934989213018404    8    3    3    3
 0.02455906519947963    8    3    4    1
 -0.01313466191510777    8    3    4    2
 0.0001917787301804458    8    3    4    3
 -0.054173865248158    8    3    4    4
 -2.301157315303286e-05    8    3    5    1
 5.465540097759298e-05    8    3    5    2
 -0.0001683709332280647    8    3    5    3
 3.130605058437719e-05    8    3    5    4
 -0.04987111452178697    8    3    5    5
 0.01406017664076453    8    3    6    1
 0.01850140547900064    8    3    6    2
 -0.02214946409601285    8    3    6    3
 -5.573023352568394e-05    8    3    6    4
 2.945714531907098e-05    8    3    6    5
 -0.02970574518063177    8    3    6    6
 4.991148899624747e-05    8    3    7    1
 -3.35651620446256e-05    8    3    7    2
 0.0002478630472397006    8    3    7    3
 -2.53082258832828e-05    8    3    7    4
 0.02347775030920366    8    3    7    5
 4.869243841297295e-05    8    3    7    6
 -0.05703871545527551    8    3    7    7
 0.004399710325939744    8    3    8    1
 -0.03934564859218624    8    3    8    2
 0.08450075102582995    8    3    8    3
 -0.01173537455950179    8    4    1    1
 -0.0166767488186861    8    4    2    1
 0.0265606060883846    8    4    2    2
 0.006917037708629574    8    4    3    1
 -0.02870988319554306    8    4    3    2
 0.01174324163542142    8    4    3    3
 -0.01870739483853961    8    4    4    1
 0.002350073356731381    8    4    4    2
 -0.001814918145766198    8    4    4    3
 -0.00197841787246141    8    4    4    4
 -6.344563089810359e-05    8    4    5    1
 4.248459202666398e-05    8    4    5    2
 -8.075294052753802e-06    8    4    5    3
 4.07772533708997e-05    8    4    5    4
 -0.002074908124688595    8    4    5    5
 0.02113121797603863    8    4    6    1
 0.01117314232975983    8    4    6    2
 -0.001101378598617769    8    4    6    3
 0.0008405392124351899    8    4    6    4
 3.762351350367892e-05    8    4    6    5
 -0.01621299315653883    8    4    6    6
 5.863713712888856e-05    8    4    7    1
 -2.665160108724691e-05    8    4    7    2
 -3.770155367127906e-05    8    4    7    3
 2.259841757087738e-05    8    4    7    4
 -0.02122681518483102    8    4    7    5
 -9.01413699312573e-05    8    4    7    6
 0.01504411321307412    8    4    7    7
 -0.004099820140785113    8    4    8    1
 0.006538918831702798    8    4    8    2
 -0.003049458334653462    8    4    8    3
 0.02701506118511741    8    4    8    4
 0.0001614489644418137    8    5    1    1
 -5.523164547050823e-05    8    5    2    1
 0.0001254286131291203    8    5    2    2
 -5.346997071030765e-05    8    5    3    1
 6.085693358338622e-05    8    5    3    2
 8.928706597477295e-05    8    5    3    3
 -0.0001266407630871568    8    5    4    1
 2.814149260675059e-05    8    5    4    2
 1.12094314104584e-05    8    5    4    3
 0.0002154216956856912    8    5    4    4
 -0.001782490143319469    8    5    5    1
 0.005620697776390113    8    5    5    2
 -0.001667758567601561    8    5    5    3
 0.001323926666297622    8    5    5    4
 0.0001914867932702417    8    5    5    5
 -1.335855565358631e-05    8    5    6    1
 -1.301100153691723e-05    8    5    6    2
 4.040808134879638e-05    8    5    6    3
 -1.451571341376648e-05    8    5    6    4
 0.004608784181376873    8    5    6    5
 5.075938988313594e-05    8    5    6    6
 0.004815067373672295    8    5    7    1
 -0.00852448427078654    8    5    7    2
 0.003725963462137094    8    5    7    3
 -0.004092248468065399    8    5    7    4
 -0.0001308416093372147    8    5    7    5
 0.006445094666994941    8    5    7    6
 0.0003506490900617622    8    5    7    7
 -6.222801821907898e-05    8    5    8    1
 0.0001884322484418311    8    5    8    2
 -0.0001840808584278346    8    5    8    3
 6.140293587163849e-05    8    5    8    4
 0.01112883706528154    8    5    8    5
 0.1165432627330641    8    6    1    1
 0.04594767873021387    8    6    2    1
 -0.02785763385685101    8    6    2    2
 0.01156144187222272    8    6    3    1
 0.0313417140880504    8    6    3    2
 -0.02580842798866618    8    6    3    3
 0.02245212380224477    8    6    4    1
 0.03970774035603464    8    6    4    2
 0.03015977442339084    8    6    4    3
 0.06403661838790384    8    6    4    4
 -5.505531614736355e-05    8    6    5    1
 -2.891977621905576e-05    8    6    5    2
 0.0001314834193732367    8    6    5    3
 -0.0001078887361200491    8    6    5    4
 0.0774326085493381    8    6    5    5
 0.00593035823721925    8    6    6    1
 -0.002308469947597759    8    6    6    2
 0.03374746675506315    8    6    6    3
 -0.01444721059002527    8    6    6    4
 -0.0002632323303291206    8    6    6    5
 0.1210636947970612    8    6    6    6
 -1.579015530288982e-05    8    6    7    1
 3.718154504428563e-05    8    6    7    2
 0.000163381598498437    8    6    7    3
 6.988432008160914e-06    8    6    7    4
 0.06083463686545627    8    6    7    5
 0.0003520815216945031    8    6    7    6
 0.02391941817638957    8    6    7    7
 0.003831729096746346    8    6    8    1
 0.01109587339775405    8    6    8    2
 -0.01106708238466525    8    6    8    3
 -0.01331484102199349    8    6    8    4
 1.38159152794318e-05    8    6    8    5
 0.05773441916584816    8    6    8    6
 0.0002813470686837616    8    7    1    1
 0.0001664784393429599    8    7    2    1
 -0.0001158375835063579    8    7    2    2
 8.499545073634103e-05    8    7    3    1
 -4.260614520341037e-05    8    7    3    2
 -7.965945288526978e-05    8    7    3    3
 0.0001352857619313889    8    7    4    1
 0.0001199050590391039    8    7    4    2
 0.0001157567605432757    8    7    4    3
 5.602667986962192e-05    8    7    4    4
 0.01099708195367169    8    7    5    1
 -0.009614587133229902    8    7    5    2
 0.005175276782904182    8    7    5    3
 -0.006580940741120927    8    7    5    4
 8.646552824540812e-05    8    7    5    5
 -1.631383347313857e-05    8    7    6    1
 1.065672000726948e-05    8    7    6    2
 0.0001156355766898082    8    7    6    3
 -5.791543305684934e-05    8    7    6    4
 0.009163261152195935    8    7    6    5
 0.0003460323881627545    8    7    6    6
 -0.003301344309589947    8    7    7    1
 0.01422649680974309    8    7    7    2
 -0.00174578030418814    8    7    7    3
 0.003849507437882278    8    7    7    4
 0.0003608953373619383    8    7    7    5
 0.00196281596459158    8    7    7    6
 -0.0002244040658933327    8    7    7    7
 8.942205183409188e-05    8    7    8    1
 -0.0002423071631719821    8    7    8    2
 0.000102489894777843    8    7    8    3
 -6.994526308803604e-05    8    7    8    4
 -0.009352814251166285    8    7    8    5
 0.0001174194454022056    8    7    8    6
 0.02391471546691578    8    7    8    7
 0.4415481776192932    8    8    1    1
 -0.05007134172379589    8    8    2    1
 0.5463840128569791    8    8    2    2
 -0.007632136673867493    8    8    3    1
 -0.07667273867157298    8    8    3    2
 0.5102778400003455    8    8    3    3
 -0.06757681098464385    8    8    4    1
 -0.008928927831958831    8    8    4    2
 0.004956376752590652    8    8    4    3
 0.4607445366963566    8    8    4    4
 -9.713524080139602e-05    8    8    5    1
 0.0002668410984774569    8    8    5    2
 1.034392364193624e-05    8    8    5    3
 -6.672852119998251e-05    8    8    5    4
 0.4248220910240648    8    8    5    5
 0.004496165738354356    8    8    6    1
 0.01874336630070024    8    8    6    2
 -0.01002289901192936    8    8    6    3
 -0.006823802255787495    8    8    6    4
 7.051561067710224e-05    8    8    6    5
 0.41423473886006    8    8    6    6
 2.140795772487607e-05    8    8    7    1
 -0.0002453771224452747    8    8    7    2
 -0.000154940132387821    8    8    7    3
 8.733958835394881e-05    8    8    7    4
 -0.04834443000875532    8    8    7    5
 -7.880855247830065e-05    8    8    7    6
 0.4910776263584251    8    8    7    7
 -0.002734988638687313    8    8    8    1
 -0.008340287862524788    8    8    8    2
 -0.02139143735554276    8    8    8    3
 0.03750815881360413    8    8    8    4
 0.0002745570318612766    8    8    8    5
 -0.01600456512010648    8    8    8    6
 -0.0002521916193198276    8    8    8    7
 0.5673238507450475    8    8    8    8
 -0.08425048717495393    9    1    1    1
 -0.01661285018404954    9    1    2    1
 0.0122061721592676    9    1    2    2
 0.008674625886523152    9    1    3    1
 -0.0003000592211074604    9    1    3    2
 0.009765808431945551    9    1    3    3
 0.03536285007048692    9    1    4    1
 -0.002552236704507672    9    1    4    2
 -0.01322212523567761    9    1    4    3
 -0.03364405389642689    9    1    4    4
 -4.370913441207836e-05    9    1    5    1
 -2.10457888796231e-05    9    1    5    2
 -6.876965939537696e-05    9    1    5    3
 5.526453532124753e-05    9    1    5    4
 -0.06092963318762427    9    1    5    5
 0.006368845978793344    9    1    6    1
 0.001259345254047188    9    1    6    2
 -0.01760831465942695    9    1    6    3
 0.01005188143597818    9    1    6    4
 0.000170344033729547    9    1    6    5
 -0.08520012123064297    9    1    6    6
 0.0001111643827781926    9    1    7    1
 1.692419381545635e-06    9    1    7    2
 -0.000192873549707112    9    1    7    3
 -1.93455484292235e-05    9    1    7    4
 -0.05535149405822752    9    1    7    5
 -0.0002532096105996233    9    1    7    6
 -0.008737264762222766    9    1    7    7
 -0.008096535555133904    9    1    8    1
 0.002186862666508709    9    1    8    2
 -0.01233886798050325    9    1    8    3
 0.01412107350117513    9    1    8    4
 3.890712322612275e-05    9    1    8    5
 -0.03118065073412378    9    1    8    6
 -0.0001101015981573093    9    1    8    7
 0.007912540664820073    9    1    8    8
 0.08164038358227955    9    1    9    1
 -0.0145855126826463    9    2    1    1
 0.009064279339981975    9    2    2    1
 0.01636263339123615    9    2    2    2
 0.01186583456035413    9    2    3    1