 &FCI NORB=   7,NELEC=10,MS2=0,
  ORBSYM=1,1,1,1,1,1,1,
  ISYM=1,
 &END
 0.6639965190322836    1    1    1    1
 1.524659314085498e-06    2    1    1    1
 0.03112908488310095    2    1    2    1
 0.5888822015531555    2    2    1    1
 -1.903943439161045e-06    2    2    2    1
 0.6596233068764712    2    2    2    2
 -4.605464916524469e-08    3    1    1    1
 6.549620979383909e-06    3    1    2    1
 -4.356566145609479e-08    3    1    2    2
 0.01865061586881859    3    1    3    1
 -1.753870494956515e-05    3    2    1    1
 3.036179467571869e-08    3    2    2    1
 -2.130269349757084e-06    3    2    2    2
 -7.488031483836609e-06    3    2    3    1
 0.02900608804587258    3    2    3    2
 0.6177251924775092    3    3    1    1
 1.737658955847262e-05    3    3    2    1
 0.6020368150271374    3    3    2    2
 -6.358703556839235e-08    3    3    3    1
 -2.576518131156026e-06    3    3    3    2
 0.6604055825611268    3    3    3    3
 2.238011721248689e-06    4    1    1    1
 -1.647251655461897e-08    4    1    2    1
 9.012101804729893e-06    4    1    2    2
 9.435120931627621e-07    4    1    3    1
 -0.007285622549506569    4    1    3    2
 -8.679786773256775e-06    4    1    3    3
 0.02037836906391569    4    1    4    1
 1.155893479258974e-07    4    2    1    1
 -4.525538769090597e-06    4    2    2    1
 2.744186463107372e-08    4    2    2    2
 -0.005589108610935646    4    2    3    1
 -7.988194646051087e-07    4    2    3    2
 -1.403679298224957e-07    4    2    3    3
 8.469645761541238e-06    4    2    4    1
 0.02932552094386253    4    2    4    2
 -9.257281073352226e-07    4    3    1    1
 0.01427662522202154    4    3    2    1
 -1.122586930135387e-06    4    3    2    2
 6.008891659476444e-06    4    3    3    1
 1.459641402591126e-07    4    3    3    2
 8.368445880173279e-07    4    3    3    3
 -8.114808505658836e-08    4    3    4    1
 -3.299150562942304e-06    4    3    4    2
 0.02934038663673179    4    3    4    3
 0.6161323782978512    4    4    1    1
 -1.696014688146848e-05    4    4    2    1
 0.6045606481626201    4    4    2    2
 9.465444050435479e-08    4    4    3    1
 2.568550692880789e-06    4    4    3    2
 0.6048554400357198    4    4    3    3
 3.003532630234011e-06    4    4    4    1
 6.430691510773513e-08    4    4    4    2
 1.053583798783567e-06    4    4    4    3
 0.6666502278309065    4    4    4    4
 0.0001648486174141946    5    1    1    1
 -1.860390165077999e-08    5    1    2    1
 0.002731805936310616    5    1    2    2
 -8.607340189430276e-08    5    1    3    1
 -7.024442571844458e-06    5    1    3    2
 0.01322867528490681    5    1    3    3
 -2.691424692316149e-06    5    1    4    1
 -8.84551786836185e-08    5    1    4    2
 -1.728631187605431e-05    5    1    4    3
 -0.01513566172000398    5    1    4    4
 0.03139624030028035    5    1    5    1
 -6.410174929124329e-07    5    2    1    1
 -0.001113802451083257    5    2    2    1
 -2.778318699605349e-07    5    2    2    2
 1.542524210839215e-06    5    2    3    1
 5.957536279166607e-08    5    2    3    2
 -2.415378576293455e-06    5    2    3    3
 -4.216284826991394e-08    5    2    4    1
 -3.956443502285271e-06    5    2    4    2
 -0.0009903986199407539    5    2    4    3
 1.466536049412667e-06    5    2    4    4
 -7.538723702464305e-07    5    2    5    1
 0.01671357679769208    5    2    5    2
 2.874300786849786e-07    5    3    1    1
 5.614785752902254e-06    5    3    2    1
 -6.497468160028282e-08    5    3    2    2
 -0.005826478250570393    5    3    3    1
 2.274133553645681e-07    5    3    3    2
 1.06186979278132e-07    5    3    3    3
 8.027748373728772e-06    5    3    4    1
 0.01328869102404361    5    3    4    2
 6.039419696815946e-06    5    3    4    3
 -4.906310467882626e-08    5    3    4    4
 7.628263467391542e-08    5    3    5    1
 -4.97164543936331e-06    5    3    5    2
 0.0306571574602916    5    3    5    3
 2.84745397296502e-06    5    4    1    1
 1.279886359114386e-07    5    4    2    1
 5.87550779188333e-06    5    4    2    2
 7.653864658273704e-06    5    4    3    1
 -0.01195948825782376    5    4    3    2
 -1.4450398704003e-05    5    4    3    3
 0.007004249817538249    5    4    4    1
 -5.860803643432767e-07    5    4    4    2
 1.488318810685327e-08    5    4    4    3
 -2.313457858742984e-06    5    4    4    4
 -1.557412309787987e-06    5    4    5    1
 -6.143519036167515e-08    5    4    5    2
 -1.567878823666211e-06    5    4    5    3
 0.0283147389563987    5    4    5    4
 0.5908704160846793    5    5    1    1
 4.872442028352814e-07    5    5    2    1
 0.6291882133417046    5    5    2    2
 -9.248796673227283e-08    5    5    3    1
 8.112636618139382e-06    5    5    3    2
 0.6027594722362273    5    5    3    3
 4.547284254383543e-06    5    5    4    1
 1.960408009291512e-07    5    5    4    2
 3.274293897443616e-06    5    5    4    3
 0.6091520425685411    5    5    4    4
 0.0006456444471611405    5    5    5    1
 -3.083738621510265e-07    5    5    5    2
 1.10715856599798e-07    5    5    5    3
 -2.814825384542562e-06    5    5    5    4
 0.6657779122879014    5    5    5    5
 0.01956975856266344    6    1    1    1
 -1.571418854827271e-06    6    1    2    1
 -0.01830104707266314    6    1    2    2
 3.437193583477171e-08    6    1    3    1
 -1.286658889813118e-05    6    1    3    2
 0.005209781051299452    6    1    3    3
 9.137602567731348e-07    6    1    4    1
 6.651675445778972e-08    6    1    4    2
 3.516723794169363e-07    6    1    4    3
 0.007909300490123741    6    1    4    4
 -0.003672700967467929    6    1    5    1
 8.707255097714815e-08    6    1    5    2
 1.631450547516337e-07    6    1    5    3
 5.450411548139408e-06    6    1    5    4
 -0.01861963697671519    6    1    5    5
 0.01712937638772153    6    1    6    1
 -6.333017495583875e-06    6    2    1    1
 -0.01651301809761682    6    2    2    1
 -5.411459810985944e-06    6    2    2    2
 -1.229644353540893e-05    6    2    3    1
 -3.649653229452321e-08    6    2    3    2
 -2.38728398449355e-05    6    2    3    3
 5.743001995362211e-08    6    2    4    1
 1.567741668908394e-05    6    2    4    2
 -0.01508458627122112    6    2    4    3
 1.290309228568783e-05    6    2    4    4
 -2.82616809737676e-07    6    2    5    1
 0.001321497673426109    6    2    5    2
 5.481972845409058e-06    6    2    5    3
 -9.782463793742597e-08    6    2    5    4
 -6.539203400653768e-06    6    2    5    5
 2.179110987011743e-06    6    2    6    1
 0.01468461151483319    6    2    6    2
 3.417095061643803e-07    6    3    1    1
 -1.235301793480472e-05    6    3    2    1
 2.285736133234934e-07    6    3    2    2
 0.006276903725044437    6    3    3    1
 -1.786545754297658e-05    6    3    3    2
 6.946159075136606e-07    6    3    3    3
 8.429975503621871e-07    6    3    4    1
 -0.0145689309494295    6    3    4    2
 -1.266249155314772e-05    6    3    4    3
 2.442456167545791e-07    6    3    4    4
 1.975672563106208e-07    6    3    5    1
 5.744998197604558e-06    6    3    5    2
 -0.01526295777948651    6    3    5    3
 1.836641656454287e-05    6    3    5    4
 2.571800026087735e-09    6    3    5    5
 2.967755215568021e-08    6    3    6    1
 1.19123906154617e-06    6    3    6    2
 0.01348966372217987    6    3    6    3
 1.911928348724538e-07    6    4    1    1
 8.915210050384169e-08    6    4    2    1
 1.504481413656716e-05    6    4    2    2
 8.5532491208728e-07    6    4    3    1
 -0.01494162976993754    6    4    3    2
 -1.319950621978081e-05    6    4    3    3
 0.00868186908572177    6    4    4    1
 1.784372608270053e-05    6    4    4    2
 -2.387708751398245e-08    6    4    4    3
 -1.00154102877084e-05    6    4    4    4
 5.462743552610989e-06    6    4    5    1
 -8.285011740520455e-08    6    4    5    2
 1.81277126880571e-05    6    4    5    3
 0.0148240989300579    6    4    5    4
 4.14319982829715e-06    6    4    5    5
 -1.541805727052671e-07    6    4    6    1
 -4.006664464657621e-08    6    4    6    2
 7.060358571949646e-07    6    4    6    3
 0.01486002344518628    6    4    6    4
 -0.00229530860687993    6    5    1    1
 -6.842978850393443e-08    6    5    2    1
 0.002734377807561068    6    5    2    2
 1.748237425979794e-07    6    5    3    1
 6.251217158827672e-06    6    5    3    2
 -0.01482528061011082    6    5    3    3
 5.372612479331946e-06    6    5    4    1
 -6.046253475673832e-08    6    5    4    2
 1.930940199091462e-05    6    5    4    3
 0.01709542377153835    6    5    4    4
 -0.01745549780375166    6    5    5    1
 1.040958572471999e-07    6    5    5    2
 -2.625028677882141e-07    6    5    5    3
 5.11755387569054e-06    6    5    5    4
 0.005418871835125634    6    5    5    5
 0.0005739651410158395    6    5    6    1
 4.841178782832139e-07    6    5    6    2
 -6.681596641111977e-08    6    5    6    3
 -7.950655645123235e-07    6    5    6    4
 0.01716927007248508    6    5    6    5
 0.3505923102567286    6    6    1    1
 1.665245766341389e-06    6    6    2    1
 0.3488638162731487    6    6    2    2
 1.811975972737523e-08    6    6    3    1
 1.313567292633956e-06    6    6    3    2
 0.3487445174750428    6    6    3    3
 4.078035497021477e-07    6    6    4    1
 -1.343350638531269e-08    6    6    4    2
 8.689603714045395e-07    6    6    4    3
 0.3511700324199259    6    6    4    4
 0.0005742347412231522    6    6    5    1
 5.819313567162842e-08    6    6    5    2
 -1.294544175366652e-08    6    6    5    3
 -1.163492124999228e-06    6    6    5    4
 0.3528142632763854    6    6    5    5
 0.001188226377459481    6    6    6    1
 -1.172227365020171e-06    6    6    6    2
 5.239714741256396e-08    6    6    6    3
 -8.350522351391484e-07    6    6    6    4
 0.0002724704710525341    6    6    6    5
 0.2930057707322521    6    6    6    6
 0.004659687471868725    7    1    1    1
 -1.184690405774789e-06    7    1    2    1
 -0.004092677530181006    7    1    2    2
 2.244315184916782e-08    7    1    3    1
 -2.461869736353451e-06    7    1    3    2
 5.336774909382597e-05    7    1    3    3
 3.256384685170916e-07    7    1    4    1
 1.36728309540548e-08    7    1    4    2
 -5.111295332879812e-07    7    1    4    3
 0.001506329539410773    7    1    4    4
 -0.001105101384204657    7    1    5    1
 -8.789432785239075e-08    7    1    5    2
 3.063368983230208e-08    7    1    5    3
 1.304163861073468e-06    7    1    5    4
 -0.004761872672310223    7    1    5    5
 0.00285985900772419    7    1    6    1
 1.502876183653821e-06    7    1    6    2
 4.763710613570559e-09    7    1    6    3
 3.969677555213426e-08    7    1    6    4
 0.0006052728515622524    7    1    6    5
 -0.0001468498852664772    7    1    6    6
 0.003089348734462192    7    1    7    1
 -5.782865051705288e-06    7    2    1    1
 -0.001528646833381364    7    2    2    1
 -8.478573861621484e-06    7    2    2    2
 -1.286592401874471e-06    7    2    3    1
 3.100658671876565e-09    7    2    3    2
 -6.745667081885345e-06    7    2    3    3
 1.826176349855745e-09    7    2    4    1
 6.971866396654216e-07    7    2    4    2
 -0.0007349641231264224    7    2    4    3
 -3.996662730789582e-06    7    2    4    4
 -7.397128087743996e-07    7    2    5    1
 -5.966707497242911e-05    7    2    5    2
 2.632586293137582e-07    7    2    5    3
 -2.574392226061208e-09    7    2    5    4
 -7.133549600454022e-06    7    2    5    5
 1.464013953068426e-06    7    2    6    1
 -0.001245903571393635    7    2    6    2
 -2.181067969411104e-07    7    2    6    3
 3.435346167415998e-09    7    2    6    4
 5.605689214092695e-07    7    2    6    5
 -2.624007208183251e-06    7    2    6    6
 -1.163622437898777e-06    7    2    7    1
 0.004947182227047431    7    2    7    2
 4.25637361643115e-07    7    3    1    1
 -9.684565743686731e-07    7    3    2    1
 3.875086185159654e-07    7    3    2    2
 0.0002328745491269396    7    3    3    1
 -9.439253195272141e-07    7    3    3    2
 4.834302409022738e-07    7    3    3    3
 -4.19065016021883e-07    7    3    4    1
 -0.0005507071459831044    7    3    4    2
 -5.309950726769766e-07    7    3    4    3
 3.862818373648068e-07    7    3    4    4
 4.932517747008026e-08    7    3    5    1
 3.801018920431373e-07    7    3    5    2
 -0.0006466723761350678    7    3    5    3
 9.154450716716902e-07    7    3    5    4
 3.919733979146302e-07    7    3    5    5
 5.758902166177072e-09    7    3    6    1
 -2.331277245769054e-07    7    3    6    2
 -0.001517190020229563    7    3    6    3
 -8.844103125233424e-09    7    3    6    4
 -4.188234242329548e-08    7    3    6    5
 1.633982918326798e-07    7    3    6    6
 1.830010986324238e-08    7    3    7    1
 1.914531974257765e-07    7    3    7    2
 0.004784934915607179    7    3    7    3
 -5.113648759119439e-07    7    4    1    1
 2.17203902854753e-08    7    4    2    1
 3.992832176258301e-07    7    4    2    2
 -4.522202410605655e-07    7    4    3    1
 -0.001239915624701697    7    4    3    2
 -1.664607409847118e-06    7    4    3    3
 0.001248757749083255    7    4    4    1
 1.649763050771881e-06    7    4    4    2
 3.232688135606479e-08    7    4    4    3
 -2.539238701347859e-06    7    4    4    4
 1.134968608356594e-06    7    4    5    1
 -8.902399184978761e-09    7    4    5    2
 1.629168943368077e-06    7    4    5    3
 0.001696916320210651    7    4    5    4
 -5.036024524980812e-07    7    4    5    5
 -7.701143204448986e-08    7    4    6    1
 -1.429351992071879e-08    7    4    6    2
 -2.946214977895121e-08    7    4    6    3
 -0.0003039020599458737    7    4    6    4
 -7.727440241992137e-07    7    4    6    5
 3.346182957129811e-07    7    4    6    6
 -1.063010934976312e-07    7    4    7    1
 -5.180134995813339e-08    7    4    7    2
 4.964487154125104e-07    7    4    7    3
 0.003502589718775576    7    4    7    4
 -0.0009502845326426021    7    5    1    1
 -4.160084786118413e-07    7    5    2    1
 -0.001106677201347674    7    5    2    2
 3.174060850338488e-08    7    5    3    1
 1.072071406310291e-06    7    5    3    2
 -0.002675455632300124    7    5    3    3
 5.756781050390219e-07    7    5    4    1
 1.969008352094236e-08    7    5    4    2
 2.434493160667001e-06    7    5    4    3
 0.001948666412294249    7    5    4    4
 -0.003580257643730944    7    5    5    1
 -2.766372929841455e-07    7    5    5    2
 2.654788742581982e-08    7    5    5    3
 3.507353632765488e-07    7    5    5    4
 -0.0008485962341617346    7    5    5    5
 0.0006189133184333486    7    5    6    1
 5.388843532351976e-07    7    5    6    2
 -4.36827524749714e-08    7    5    6    3
 -1.029884966029792e-06    7    5    6    4
 0.0009834348881507353    7    5    6    5
 -0.0007866015014344018    7    5    6    6
 -0.0003311106728073354    7    5    7    1
 -3.467824193243286e-07    7    5    7    2
 -6.952990889909794e-09    7    5    7    3
 3.612545277981936e-07    7    5    7    4
 0.002939346805984369    7    5    7    5
 0.0005854474485718196    7    6    1    1
 1.184265136841581e-06    7    6    2    1
 -0.003012579315586696    7    6    2    2
 5.0239202813618e-09    7    6    3    1
 -1.068227973179827e-07    7    6    3    2
 -0.002992101145245433    7    6    3    3
 -5.008063520728692e-08    7    6    4    1
 -1.105201224594498e-08    7    6    4    2
 1.056306811772008e-08    7    6    4    3
 -0.002666843881218084    7    6    4    4
 0.0005437518281033087    7    6    5    1
 4.375244658841554e-07    7    6    5    2
 -2.355313749353457e-08    7    6    5    3
 -4.718138288382684e-07    7    6    5    4
 -0.001749162075914571    7    6    5    5
 -9.674360603465935e-05    7    6    6    1
 2.029760247950495e-07    7    6    6    2
 -8.8807071430279e-09    7    6    6    3
 4.264953836077753e-07    7    6    6    4
 -0.000494520801632224    7    6    6    5
 0.004267482173022354    7    6    6    6
 -0.000235862299041701    7    6    7    1
 -7.115799729036061e-08    7    6    7    2
 3.206804990866022e-08    7    6    7    3
 2.035226940024109e-07    7    6    7    4
 -0.0002372549240542668    7    6    7    5
 0.01153049175524294    7    6    7    6
 0.3114683152103181    7    7    1    1
 7.649735304207219e-08    7    7    2    1
 0.314008915639322    7    7    2    2
 3.434156012858958e-08    7    7    3    1
 -4.162717433579259e-07    7    7    3    2
 0.3141754477326678    7    7    3    3
 2.35365072890655e-07    7    7    4    1
 -7.954682975310565e-08    7    7    4    2
 1.104295323333583e-06    7    7    4    3
 0.3138047467185121    7    7    4    4
 0.0003097600033507416    7    7    5    1
 -7.084658147740237e-07    7    7    5    2
 -3.850044082560856e-08    7    7    5    3
 4.618097078260927e-07    7    7    5    4
 0.3142908696376365    7    7    5    5
 0.0001714783192796332    7    7    6    1
 -1.751522025016127e-06    7    7    6    2
 1.085646790244255e-07    7    7    6    3
 9.160601875841403e-07    7    7    6    4
 -0.0003230845095780477    7    7    6    5
 0.2733611535280046    7    7    6    6
 -3.218889823505822e-05    7    7    7    1
 -9.047843725271381e-07    7    7    7    2
 2.397060631584291e-09    7    7    7    3
 -1.397663200651664e-06    7    7    7    4
 -5.757327701955833e-05    7    7    7    5
 -0.002621643744009958    7    7    7    6
 0.2679854290514646    7    7    7    7
 -11.97044389532751    1    1  0  0
 -5.323405197881277e-06    2    1  0  0
 -11.48328542941615    2    2  0  0
 1.710749624386812e-07    3    1  0  0
 1.837001763013057e-05    3    2  0  0
 -11.48564160670889    3    3  0  0
 -1.436379294530632e-05    4    1  0  0
 -7.168839146783908e-08    4    2  0  0
 -9.229984448820718e-06    4    3  0  0
 -11.42269792352391    4    4  0  0
 -0.006491359898174513    5    1  0  0
 -6.045173554878742e-06    5    2  0  0
 -9.796894484370904e-07    5    3  0  0
 1.814998672423854e-05    5    4  0  0
 -11.36586119909747    5    5  0  0
 -0.0002376586304778567    6    1  0  0
 5.181773153637948e-05    6    2  0  0
 -2.990361163941389e-06    6    3  0  0
 1.074902077884676e-05    6    4  0  0
 -0.02297173320414351    6    5  0  0
 -5.226100902359552    6    6  0  0
 0.003998149331224268    7    1  0  0
 5.80639245758469e-05    7    2  0  0
 -3.629451690815372e-06    7    3  0  0
 6.745429099235709e-06    7    4  0  0
 0.00963074004896892    7    5  0  0
 0.01633614975733132    7    6  0  0
 -2.880345629838882    7    7  0  0
 -2966.682693370686  0  0  0  0
