 &FCI NORB=  24,NELEC=39,MS2=3,
  ORBSYM=1,1,1,1,1,1,1,1,1,1,1,1,1,1,1,1,1,1,1,1,1,1,1,1,
  ISYM=1,
 &END
 0.6902135455085898    1    1    1    1
 0.0001070885319375704    2    1    1    1
 0.02724598420913272    2    1    2    1
 0.6265501825812237    2    2    1    1
 4.972153655521125e-05    2    2    2    1
 0.6669099648667903    2    2    2    2
 0.001237204167268346    3    1    1    1
 0.0003832217086688625    3    1    2    1
 0.003002491852587543    3    1    2    2
 0.02654505526545588    3    1    3    1
 -0.0002059394840522311    3    2    1    1
 9.358216074501941e-05    3    2    2    1
 -0.0004248468400563427    3    2    2    2
 0.0005630090178794832    3    2    3    1
 0.03157922674825908    3    2    3    2
 0.6210344054719789    3    3    1    1
 -0.003028549268205961    3    3    2    1
 0.5969469067685474    3    3    2    2
 0.0009278398985277832    3    3    3    1
 -0.000562279662202507    3    3    3    2
 0.6525796632000942    3    3    3    3
 -0.001549455752228661    4    1    1    1
 -0.0001869195256992775    4    1    2    1
 -0.01316775375400349    4    1    2    2
 -0.0001082816001379037    4    1    3    1
 0.001738176309882416    4    1    3    2
 0.01028856147349391    4    1    3    3
 0.0285203051780093    4    1    4    1
 0.001447119894081627    4    2    1    1
 0.009790407937509522    4    2    2    1
 -0.0005540616502886524    4    2    2    2
 -0.0009961469969541924    4    2    3    1
 0.001824531351792035    4    2    3    2
 -0.003601568395849851    4    2    3    3
 -4.482088893048564e-05    4    2    4    1
 0.02906966367815549    4    2    4    2
 -0.00390781459877225    4    3    1    1
 -0.001659765898820395    4    3    2    1
 -0.0055298551196842    4    3    2    2
 -0.009905655249250363    4    3    3    1
 0.001794585248253551    4    3    3    2
 -0.004241588546963789    4    3    3    3
 -0.0003589608617047282    4    3    4    1
 0.0002825388760454476    4    3    4    2
 0.02978723003971256    4    3    4    3
 0.5693719055443751    4    4    1    1
 0.001737855913882125    4    4    2    1
 0.5813080522805241    4    4    2    2
 -9.466549561777671e-06    4    4    3    1
 -0.0006502706705368271    4    4    3    2
 0.5742985355564335    4    4    3    3
 -0.0004322826224128547    4    4    4    1
 -0.0002921205740267392    4    4    4    2
 -0.002235565992405104    4    4    4    3
 0.6178513691195837    4    4    4    4
 0.001155268707405098    5    1    1    1
 -0.0003485014147904727    5    1    2    1
 0.002133523890794347    5    1    2    2
 0.0004187522381483124    5    1    3    1
 0.01123689154767248    5    1    3    2
 -0.001080723165198273    5    1    3    3
 -4.508664484456722e-05    5    1    4    1
 0.001176059886655848    5    1    4    2
 0.001643456523475587    5    1    4    3
 -0.0006366675869622213    5    1    4    4
 0.02593261567905893    5    1    5    1
 0.004919421015857078    5    2    1    1
 -0.001811552107353523    5    2    2    1
 0.0005106834531925857    5    2    2    2
 -0.009276634423947445    5    2    3    1
 -0.0004708793622752556    5    2    3    2
 0.0002478716405529244    5    2    3    3
 -0.001612265921945149    5    2    4    1
 6.708293375904218e-05    5    2    4    2
 0.01146678898712431    5    2    4    3
 -0.003590520228138965    5    2    4    4
 0.0001045706235045887    5    2    5    1
 0.02854693734271998    5    2    5    2
 -0.005825296480474216    5    3    1    1
 -0.009496791150695079    5    3    2    1
 0.0005486941425354996    5    3    2    2
 0.0009087005691616349    5    3    3    1
 -0.001050399485643149    5    3    3    2
 -0.001082672229562309    5    3    3    3
 -0.001771080085296628    5    3    4    1
 -0.0112436571215047    5    3    4    2
 0.0001383422428796535    5    3    4    3
 0.001369779130182313    5    3    4    4
 -0.000328126642363015    5    3    5    1
 -0.0002125106712401    5    3    5    2
 0.02797556312150085    5    3    5    3
 0.0005718016665391054    5    4    1    1
 0.001852755558880199    5    4    2    1
 -4.573869655255452e-05    5    4    2    2
 0.0007177966817084323    5    4    3    1
 4.233990117704232e-05    5    4    3    2
 0.0001210808407550202    5    4    3    3
 0.0004055631718209768    5    4    4    1
 0.001972646191342462    5    4    4    2
 -0.001174165124666214    5    4    4    3
 0.0001600820119828279    5    4    4    4
 -0.000211815704756141    5    4    5    1
 -0.001099822077903395    5    4    5    2
 -0.002107927310121516    5    4    5    3
 0.01641790009612327    5    4    5    4
 0.5597519439506876    5    5    1    1
 0.002889317709365416    5    5    2    1
 0.5700139001041762    5    5    2    2
 -0.003382979315157447    5    5    3    1
 0.0005745717106402206    5    5    3    2
 0.5638777003512747    5    5    3    3
 -0.0003388937208859567    5    5    4    1
 0.001932837044768532    5    5    4    2
 0.001861460538097395    5    5    4    3
 0.5728715028701928    5    5    4    4
 0.0003875835670359559    5    5    5    1
 0.000393926022679925    5    5    5    2
 -0.0008737256342103566    5    5    5    3
 0.0001468686077594395    5    5    5    4
 0.595992050942397    5    5    5    5
 -0.009258153450526376    6    1    1    1
 7.216486170019275e-05    6    1    2    1
 -0.005381683514625222    6    1    2    2
 -0.0004620622965217972    6    1    3    1
 -0.0002735277177612542    6    1    3    2
 -0.006781857602297747    6    1    3    3
 -0.001463235791237169    6    1    4    1
 -0.000242854908769305    6    1    4    2
 0.0003259078528772216    6    1    4    3
 -0.0005808599148978832    6    1    4    4
 -0.0002588361073106001    6    1    5    1
 -0.0005539473298389748    6    1    5    2
 0.0008499939962528796    6    1    5    3
 -9.012416668425285e-05    6    1    5    4
 -0.0006530964782490271    6    1    5    5
 0.0009990803010446118    6    1    6    1
 -0.0001946164880214502    6    2    1    1
 -0.002869866049656357    6    2    2    1
 0.0001130248117762535    6    2    2    2
 -0.0001225616414125094    6    2    3    1
 -0.001275550478973139    6    2    3    2
 0.000835511909719835    6    2    3    3
 -0.000237722620922715    6    2    4    1
 -0.004509783826764132    6    2    4    2
 0.0003476624064752043    6    2    4    3
 -0.0004664864788550513    6    2    4    4
 -0.0008227924405760891    6    2    5    1
 0.000618906196812727    6    2    5    2
 0.003451823041825859    6    2    5    3
 -0.0006552872808366947    6    2    5    4
 -0.001010995671216053    6    2    5    5
 1.758852203833141e-05    6    2    6    1
 0.001090448947546178    6    2    6    2
 -0.004354458846973402    6    3    1    1
 -9.385785397245519e-05    6    3    2    1
 -0.004957853427651648    6    3    2    2
 -0.001604011404158865    6    3    3    1
 0.0006637989134201965    6    3    3    2
 -0.004702804182091436    6    3    3    3
 0.0001014637509941954    6    3    4    1
 0.0003644517211730782    6    3    4    2
 0.001326330894070993    6    3    4    3
 -0.004186212725147284    6    3    4    4
 0.000586313842623268    6    3    5    1
 0.002085085479692279    6    3    5    2
 -0.0002650281794873259    6    3    5    3
 -0.0001613730620425363    6    3    5    4
 -0.003287623696885941    6    3    5    5
 7.737713097146337e-05    6    3    6    1
 -1.789189389235203e-05    6    3    6    2
 0.0008981371182954855    6    3    6    3
 -0.02563751596840073    6    4    1    1
 -0.0003635986931740625    6    4    2    1
 -0.02951348578175908    6    4    2    2
 0.0001542025766648276    6    4    3    1
 0.0004179680765892292    6    4    3    2
 -0.02312539280343135    6    4    3    3
 0.003057906257019706    6    4    4    1
 -0.0003017286631414675    6    4    4    2
 -0.0003075531548419178    6    4    4    3
 -0.02876819296765095    6    4    4    4
 -1.878458911174223e-05    6    4    5    1
 -0.0004129338790411458    6    4    5    2
 -0.0003168149233048624    6    4    5    3
 9.229800345978724e-05    6    4    5    4
 -0.02664017050563692    6    4    5    5
 0.0003767746059260382    6    4    6    1
 3.658897377190924e-05    6    4    6    2
 0.0008462804007658949    6    4    6    3
 0.005803893793143374    6    4    6    4
 0.0002631462831867908    6    5    1    1
 -0.0008067342524263559    6    5    2    1
 0.001156428487955158    6    5    2    2
 0.000632748686979079    6    5    3    1
 0.002690136672478572    6    5    3    2
 0.0002528926952459709    6    5    3    3
 -5.414900002503425e-05    6    5    4    1
 -0.0005591303951763868    6    5    4    2
 -0.0001694990610277185    6    5    4    3
 0.0006188253636034669    6    5    4    4
 0.002606619407995489    6    5    5    1
 -0.0006064125257298449    6    5    5    2
 0.0007227235216783975    6    5    5    3
 -0.001250325774442269    6    5    5    4
 0.0005457414894285517    6    5    5    5
 -1.281450401830543e-05    6    5    6    1
 3.251669460786261e-05    6    5    6    2
 2.403759822694387e-05    6    5    6    3
 -0.0001089221643915094    6    5    6    4
 0.001297473289111228    6    5    6    5
 0.1981074317076098    6    6    1    1
 -3.91279403233382e-08    6    6    2    1
 0.1965045167377762    6    6    2    2
 -7.535507521438207e-05    6    6    3    1
 0.0004921787658979078    6    6    3    2
 0.2049647221406888    6    6    3    3
 0.003536356229959235    6    6    4    1
 -0.0002935120797462635    6    6    4    2
 0.0008939813057224043    6    6    4    3
 0.2051099771314096    6    6    4    4
 -6.219020646776232e-05    6    6    5    1
 -0.0002215304519931523    6    6    5    2
 -0.0003403575402898089    6    6    5    3
 -4.475843427908383e-05    6    6    5    4
 0.2022123227458132    6    6    5    5
 0.002182207283471863    6    6    6    1
 8.208090513340009e-05    6    6    6    2
 0.00289973404674762    6    6    6    3
 0.01881294561165723    6    6    6    4
 -0.0004091449966752442    6    6    6    5
 0.4297049299389992    6    6    6    6
 0.004068116747440833    7    1    1    1
 -0.0001109761538745105    7    1    2    1
 0.003420015330090429    7    1    2    2
 -0.0008854375748641615    7    1    3    1
 3.195646522406797e-05    7    1    3    2
 0.003526458548281298    7    1    3    3
 0.0001413209750207369    7    1    4    1
 1.208426041809117e-05    7    1    4    2
 0.0002735825638444994    7    1    4    3
 0.003011204429052153    7    1    4    4
 9.506813537654539e-05    7    1    5    1
 0.000345964758550404    7    1    5    2
 -5.569593288956527e-05    7    1    5    3
 -1.931101244658459e-05    7    1    5    4
 0.003066999214534592    7    1    5    5
 -0.0001003356479138564    7    1    6    1
 9.090002267800533e-06    7    1    6    2
 -2.259619844792872e-05    7    1    6    3
 -0.0004302701687671608    7    1    6    4
 -7.552368464093707e-06    7    1    6    5
 -0.002389472405742663    7    1    6    6
 0.0001436633449206729    7    1    7    1
 -0.001595875791801236    7    2    1    1
 0.0002932901544549052    7    2    2    1
 -0.001751259082573156    7    2    2    2
 -5.403558579738776e-05    7    2    3    1
 -0.001048880444234894    7    2    3    2
 -0.001554628777233921    7    2    3    3
 -1.690865360287214e-05    7    2    4    1
 0.0002119445954476705    7    2    4    2
 -2.037241246753429e-05    7    2    4    3
 -0.001427898633094375    7    2    4    4
 -0.000369781477545992    7    2    5    1
 8.876382661789507e-05    7    2    5    2
 -0.0001294059874651347    7    2    5    3
 3.252081573337643e-05    7    2    5    4
 -0.001406660982335657    7    2    5    5
 3.730851687166152e-05    7    2    6    1
 -1.075944834947654e-05    7    2    6    2
 1.88701783893408e-05    7    2    6    3
 0.0001863280672080974    7    2    6    4
 -0.0001016629622879078    7    2    6    5
 0.0008597465546792304    7    2    6    6
 -2.679733097130939e-05    7    2    7    1
 8.706628721182787e-05    7    2    7    2
 -0.01571263598353575    7    3    1    1
 7.387842153788127e-05    7    3    2    1
 -0.01485513680704977    7    3    2    2
 0.0001649322652642233    7    3    3    1
 -8.897565817272091e-05    7    3    3    2
 -0.0167636162185839    7    3    3    3
 -0.0003230073131259081    7    3    4    1
 6.483102719547591e-05    7    3    4    2
 0.0001973361946690795    7    3    4    3
 -0.01389859585830133    7    3    4    4
 -2.786028352330666e-06    7    3    5    1
 -6.785827450032679e-05    7    3    5    2
 0.0001564394602391867    7    3    5    3
 -9.723671186969788e-06    7    3    5    4
 -0.0136695194562096    7    3    5    5
 0.0003657235932693165    7    3    6    1
 -8.23815902675239e-06    7    3    6    2
 0.0003838335047127035    7    3    6    3
 0.001894104271903531    7    3    6    4
 -4.070380827797174e-05    7    3    6    5
 0.009943023507982807    7    3    6    6
 -0.0003022274582583092    7    3    7    1
 0.0001215253167170202    7    3    7    2
 0.001373779982738811    7    3    7    3
 0.002458586875570175    7    4    1    1
 4.366476040035768e-05    7    4    2    1
 0.0025292583395355    7    4    2    2
 0.0004054829299669931    7    4    3    1
 -7.377406985935955e-05    7    4    3    2
 0.002552732584211403    7    4    3    3
 0.0002155234892663781    7    4    4    1
 -0.0001096516563379188    7    4    4    2
 -0.001183954477483625    7    4    4    3
 0.002699861443589045    7    4    4    4
 -7.097538073001651e-05    7    4    5    1
 -0.0005081229340314245    7    4    5    2
 3.036283114498624e-05    7    4    5    3
 0.0001090571561425605    7    4    5    4
 0.00226716180494309    7    4    5    5
 -0.0001195557103814571    7    4    6    1
 2.369217774519308e-05    7    4    6    2
 0.0001786425460995007    7    4    6    3
 -0.0003512170304336442    7    4    6    4
 -2.270205731164928e-05    7    4    6    5
 -0.001587378424886083    7    4    6    6
 2.642176063210927e-05    7    4    7    1
 -2.84795585232283e-05    7    4    7    2
 -0.0001496484307551848    7    4    7    3
 0.0005207161181938751    7    4    7    4
 0.001900448726198038    7    5    1    1
 0.0004213936941902325    7    5    2    1
 0.001702121096060862    7    5    2    2
 -9.231395599434147e-06    7    5    3    1
 0.000138132125056994    7    5    3    2
 0.00171779412790228    7    5    3    3
 7.733487531401118e-05    7    5    4    1
 0.0004895159814412569    7    5    4    2
 -3.009109817214882e-05    7    5    4    3
 0.001675692406277919    7    5    4    4
 0.0002353372779969705    7    5    5    1
 -0.000100474099404785    7    5    5    2
 -0.001160353136630193    7    5    5    3
 0.0001986224647090176    7    5    5    4
 0.001880497176761676    7    5    5    5
 -5.703225373438495e-05    7    5    6    1
 -0.0001575553558155879    7    5    6    2
 -3.968253377566568e-05    7    5    6    3
 -0.0002445664450954406    7    5    6    4
 3.986710497595557e-06    7    5    6    5
 -0.001093260582077697    7    5    6    6
 2.991739721901816e-05    7    5    7    1
 -1.539877993518323e-05    7    5    7    2
 -0.0001384636060122587    7    5    7    3
 1.593617108515304e-05    7    5    7    4
 0.0001730912206793178    7    5    7    5
 0.0001194949519808032    7    6    1    1
 -1.744838270992078e-05    7    6    2    1
 6.203009094982031e-05    7    6    2    2
 -0.0005221483807525681    7    6    3    1
 3.476007884681472e-05    7    6    3    2
 0.00028361158438278    7    6    3    3
 -0.0001720245481596582    7    6    4    1
 0.000115887581542404    7    6    4    2
 0.001213202860022993    7    6    4    3
 -0.0002430697590389909    7    6    4    4
 2.549496777310799e-05    7    6    5    1
 0.0005598573804740807    7    6    5    2
 -9.1238283471646e-05    7    6    5    3
 -0.0001316470315645758    7    6    5    4
 0.0001997500944453077    7    6    5    5
 -0.0004873172957395879    7    6    6    1
 0.0001763391645552299    7    6    6    2
 0.002241952283962467    7    6    6    3
 -0.0003578085355794775    7    6    6    4
 -0.0001876976015076987    7    6    6    5
 0.0002134471037297488    7    6    6    6
 7.662755478308862e-05    7    6    7    1
 -7.330410480931475e-05    7    6    7    2
 0.0003794015096199457    7    6    7    3
 0.00264785563579972    7    6    7    4
 -6.937963197665899e-05    7    6    7    5
 0.02693265581566888    7    6    7    6
 0.1804816866666617    7    7    1    1
 1.348023914802914e-05    7    7    2    1
 0.1789834460149047    7    7    2    2
 -8.832485657437011e-05    7    7    3    1
 0.000454351711885174    7    7    3    2
 0.1863956601803434    7    7    3    3
 0.00237765566219038    7    7    4    1
 -0.0002149535616912694    7    7    4    2
 0.0001233581942565905    7    7    4    3
 0.1840996856312704    7    7    4    4
 -2.092313572231354e-05    7    7    5    1
 -0.0002425449343265379    7    7    5    2
 -0.0004600307799202778    7    7    5    3
 2.290266979700865e-05    7    7    5    4
 0.1825311922820905    7    7    5    5
 0.001542937359835171    7    7    6    1
 -2.349674361142766e-05    7    7    6    2
 0.002367005031870789    7    7    6    3
 0.01614079471682259    7    7    6    4
 -0.0003670818163727368    7    7    6    5
 0.37755465957784    7    7    6    6
 -0.002605928060864945    7    7    7    1
 0.001028893564125    7    7    7    2
 0.01164013922618604    7    7    7    3
 -0.0019138411890629    7    7    7    4
 -0.001493601236320499    7    7    7    5
 4.552710411884729e-05    7    7    7    6
 0.4343841060617205    7    7    7    7
 0.0006361890004218803    8    1    1    1
 2.792163200239052e-05    8    1    2    1
 0.0005621305616651558    8    1    2    2
 -0.0001934588180855641    8    1    3    1
 -0.0003315033163279096    8    1    3    2
 0.0006419711747348048    8    1    3    3
 -6.373169947590328e-06    8    1    4    1
 -2.973377048349932e-05    8    1    4    2
 1.137533961499646e-05    8    1    4    3
 0.0006615114351025143    8    1    4    4
 -0.0008472651160446882    8    1    5    1
 5.137358261269537e-05    8    1    5    2
 9.426032008589641e-06    8    1    5    3
 9.943269791591461e-07    8    1    5    4
 0.0006467628100027542    8    1    5    5
 1.698522912624723e-06    8    1    6    1
 1.76297923598298e-05    8    1    6    2
 -1.027312938084403e-05    8    1    6    3
 -9.186103444734737e-05    8    1    6    4
 -6.955843684182395e-05    8    1    6    5
 -0.0005268980957273279    8    1    6    6
 1.591993590842223e-05    8    1    7    1
 2.514588380995359e-05    8    1    7    2
 -5.530838220739223e-05    8    1    7    3
 7.352387641818162e-06    8    1    7    4
 -2.266964468157801e-05    8    1    7    5
 1.745255884349662e-05    8    1    7    6
 -0.0004244680536768409    8    1    7    7
 0.0001052126888294852    8    1    8    1
 0.0003555707121382256    8    2    1    1
 5.832814289225921e-05    8    2    2    1
 0.0005239472806379576    8    2    2    2
 0.0003074883822646379    8    2    3    1
 -0.0002245698293822894    8    2    3    2
 0.0004805641667769424    8    2    3    3
 1.837661621096289e-05    8    2    4    1
 -5.469000197748786e-05    8    2    4    2
 -0.0003796297274495889    8    2    4    3
 0.0005819217920478128    8    2    4    4
 -9.406478209442962e-05    8    2    5    1
 -0.0009398768480042449    8    2    5    2
 5.213569257976538e-05    8    2    5    3
 2.95427942564203e-05    8    2    5    4
 0.0004520827308230347    8    2    5    5
 -5.019812523074092e-07    8    2    6    1
 5.112891396903537e-06    8    2    6    2
 -3.743942033768277e-05    8    2    6    3
 -6.584592416198262e-05    8    2    6    4
 3.600430484029875e-06    8    2    6    5
 -0.0002460516995685711    8    2    6    6
 -4.331974376155108e-06    8    2    7    1
 5.154485141048857e-07    8    2    7    2
 -1.773837171101454e-05    8    2    7    3
 7.371785872083734e-05    8    2    7    4
 1.127683401126779e-05    8    2    7    5
 0.000397897489741179    8    2    7    6
 -0.0002722347693135345    8    2    7    7
 5.794183080716815e-06    8    2    8    1
 6.953153272335456e-05    8    2    8    2
 -0.003183244307671087    8    3    1    1
 0.0003485039673668667    8    3    2    1
 -0.003257076272469027    8    3    2    2
 -3.198643069060711e-05    8    3    3    1
 8.117542069227927e-05    8    3    3    2
 -0.003563597637699882    8    3    3    3
 5.209714210395534e-06    8    3    4    1
 0.0004083810370324095    8    3    4    2
 6.209579283043067e-05    8    3    4    3
 -0.003079209305245377    8    3    4    4
 3.484978136664207e-05    8    3    5    1
 3.385617109329634e-05    8    3    5    2
 -0.0009890841053716455    8    3    5    3
 6.658276286605023e-05    8    3    5    4
 -0.00294274616832209    8    3    5    5
 5.141207538863632e-05    8    3    6    1
 -9.917837483169908e-05    8    3    6    2
 9.684660709566127e-05    8    3    6    3
 0.0004123727542951429    8    3    6    4
 1.213028294925527e-05    8    3    6    5
 0.001944624276903128    8    3    6    6
 -5.499373933428849e-05    8    3    7    1
 3.544030803728524e-05    8    3    7    2
 0.0002519002916401072    8    3    7    3
 -3.989422671570356e-05    8    3    7    4
 8.359037891536098e-05    8    3    7    5
 -3.407930830130203e-05    8    3    7    6
 0.001927637182294645    8    3    7    7
 -1.544378058502559e-05    8    3    8    1
 -3.993626101101371e-06    8    3    8    2
 0.0002021656908701104    8    3    8    3
 -3.265870787907435e-05    8    4    1    1
 -3.458496595170384e-05    8    4    2    1
 -0.0001085976309318083    8    4    2    2
 3.604124866762727e-05    8    4    3    1
 -0.0001014236222936646    8    4    3    2
 5.314856598455499e-05    8    4    3    3
 9.658690409908473e-05    8    4    4    1
 -3.93427382244331e-05    8    4    4    2
 -0.0001984407597275859    8    4    4    3
 -4.852077863260053e-05    8    4    4    4
 -0.0001066670200000472    8    4    5    1
 -5.075184765256835e-05    8    4    5    2
 2.889746327515628e-05    8    4    5    3
 -0.0005876212489092384    8    4    5    4
 -7.912531824291657e-05    8    4    5    5
 -1.605242552405085e-05    8    4    6    1
 4.529908086768931e-06    8    4    6    2
 5.047048218101283e-05    8    4    6    3
 4.515965412509247e-05    8    4    6    4
 0.0002752455315933974    8    4    6    5
 5.668711558404851e-05    8    4    6    6
 -2.158051522441894e-06    8    4    7    1
 4.356051027010981e-05    8    4    7    2
 5.909811842271483e-07    8    4    7    3
 1.058519513876793e-05    8    4    7    4
 -1.699370884088503e-05    8    4    7    5
 1.106197204683445e-05    8    4    7    6
 8.45024753640875e-05    8    4    7    7
 4.769397157617508e-05    8    4    8    1
 8.157695897964101e-06    8    4    8    2
 4.264737025191099e-05    8    4    8    3
 0.0003519178129563522    8    4    8    4
 -0.01653125997864701    8    5    1    1
 -5.41753761393509e-05    8    5    2    1
 -0.01702123261554377    8    5    2    2
 0.0001024369971504208    8    5    3    1
 7.263552769246794e-05    8    5    3    2
 -0.01669166282844157    8    5    3    3
 6.732385328449443e-05    8    5    4    1
 5.855175439441814e-06    8    5    4    2
 -5.051551215946924e-05    8    5    4    3
 -0.01700668188491472    8    5    4    4
 8.689246915744858e-05    8    5    5    1
 -1.056251068748545e-05    8    5    5    2
 -0.0001807764945918721    8    5    5    3
 1.679621824614913e-06    8    5    5    4
 -0.01812103836842489    8    5    5    5
 0.0001922960870214741    8    5    6    1
 1.365781905897438e-05    8    5    6    2
 0.0003650571312705492    8    5    6    3
 0.002318376712574616    8    5    6    4
 -2.900616646726484e-05    8    5    6    5
 0.008993094012696646    8    5    6    6
 -0.0002635039854484944    8    5    7    1
 0.0001113005187449155    8    5    7    2
 0.001139477952070127    8    5    7    3
 -0.000185670383112156    8    5    7    4
 -0.0001504804182346349    8    5    7    5
 -1.885076479196546e-05    8    5    7    6
 0.009868017143145015    8    5    7    7
 -6.601911930441743e-05    8    5    8    1
 -5.59755920099789e-05    8    5    8    2
 0.000275954501774841    8    5    8    3
 1.150029500463856e-05    8    5    8    4
 0.001660599151079525    8    5    8    5
 0.0002753784987870992    8    6    1    1
 -8.440690160943507e-05    8    6    2    1
 0.0004356160083227671    8    6    2    2
 8.668931771968811e-05    8    6    3    1
 0.0007072389875879823    8    6    3    2
 0.0003091810778502012    8    6    3    3
 -1.82754880398666e-05    8    6    4    1
 -0.0001213193175029787    8    6    4    2
 0.0001601889318913648    8    6    4    3
 0.0003459096796628387    8    6    4    4
 0.0005808021054648022    8    6    5    1
 -5.767393586655477e-05    8    6    5    2
 0.000265041995930326    8    6    5    3
 0.0005224278795236826    8    6    5    4
 0.0003257462616919437    8    6    5    5
 -0.0001492898246906135    8    6    6    1
 -5.252226640609244e-05    8    6    6    2
 0.0004044818621929056    8    6    6    3
 -2.888108418029394e-05    8    6    6    4
 0.001353289730676555    8    6    6    5
 -0.0001062403245706022    8    6    6    6
 1.958007168883575e-05    8    6    7    1
 0.0004007339185193683    8    6    7    2
 -5.372916537766504e-05    8    6    7    3
 1.552569687655246e-05    8    6    7    4
 -1.378098450402688e-05    8    6    7    5
 2.157257871008017e-05    8    6    7    6
 -0.0001311724463467504    8    6    7    7
 0.0007426894996858239    8    6    8    1
 6.829646326603363e-05    8    6    8    2
 0.0005653923055309418    8    6    8    3
 0.002211144180552797    8    6    8    4
 -7.136323058253837e-05    8    6    8    5
 0.02657592270088694    8    6    8    6
 0.0001263782596816852    8    7    1    1
 -0.0001529086301564443    8    7    2    1
 0.0001269364147830979    8    7    2    2
 -2.365061210743762e-05    8    7    3    1
 -4.6172203405353e-05    8    7    3    2
 0.0002977698647100659    8    7    3    3
 1.931082581998556e-06    8    7    4    1
 -0.0001350073755428387    8    7    4    2
 5.728092025410983e-06    8    7    4    3
 6.45053678169962e-05    8    7    4    4
 -8.546219365008112e-05    8    7    5    1
 5.791079749315027e-05    8    7    5    2
 0.0004139365362071036    8    7    5    3
 -7.285010496242221e-05    8    7    5    4
 -6.825393481833148e-05    8    7    5    5
 9.614507397048541e-06    8    7    6    1
 0.0004796901790075876    8    7    6    2
 -4.252355364483959e-05    8    7    6    3
 1.511858901172801e-05    8    7    6    4
 -1.501318402100548e-05    8    7    6    5
 -4.311948984907286e-05    8    7    6    6
 -1.492243133572506e-05    8    7    7    1
 -5.206347552564965e-05    8    7    7    2
 0.00021942957956257    8    7    7    3
 2.373431750968659e-05    8    7    7    4
 0.001355996708039302    8    7    7    5
 -3.020808891803948e-05    8    7    7    6
 -0.0001230301307827364    8    7    7    7
 -0.0003537054436502658    8    7    8    1
 0.0001124069981037839    8    7    8    2
 0.001128274344959472    8    7    8    3
 -0.0001551674596032339    8    7    8    4
 -0.0001124507974294689    8    7    8    5
 2.512696525003842e-05    8    7    8    6
 0.02719439793255931    8    7    8    7
 0.1796531664198708    8    8    1    1
 1.574263073576398e-05    8    8    2    1
 0.1787202172033977    8    8    2    2
 -2.131829898715772e-06    8    8    3    1
 0.0003577790101546175    8    8    3    2
 0.1849875232080688    8    8    3    3
 0.002233504638344769    8    8    4    1
 -0.0002238736713316199    8    8    4    2
 0.0003257607931061064    8    8    4    3
 0.1841535241832867    8    8    4    4
 -5.575092947716475e-05    8    8    5    1
 -0.0002892927630840777    8    8    5    2
 -0.0001223325776280766    8    8    5    3
 6.817449823759078e-07    8    8    5    4
 0.1835632283202593    8    8    5    5
 0.002319311805436739    8    8    6    1
 0.000134376165859448    8    8    6    2
 0.00255174238582091    8    8    6    3
 0.01549498173451553    8    8    6    4
 -0.0003449407077726931    8    8    6    5
 0.3766007796660116    8    8    6    6
 -0.002364510841196238    8    8    7    1
 0.0008585256352190429    8    8    7    2
 0.009614795392861669    8    8    7    3
 -0.001526382949307355    8    8    7    4
 -0.001094262289399337    8    8    7    5
 0.0001124824710310932    8    8    7    6
 0.3794013449716311    8    8    7    7
 -0.0005389848866813249    8    8    8    1
 -0.0003296566359895572    8    8    8    2
 0.002394868954339602    8    8    8    3
 0.0001148587338598225    8    8    8    4
 0.01270207011964763    8    8    8    5
 -0.0001220332603655144    8    8    8    6
 -8.915435561864665e-05    8    8    8    7
 0.4329027281918783    8    8    8    8
 -5.502582570551248e-05    9    1    1    1
 -1.342050999057318e-06    9    1    2    1
 -0.0003155310187733592    9    1    2    2
 -2.352940684401965e-05    9    1    3    1
 3.017941592923653e-05    9    1    3    2
 -0.000324992676613529    9    1    3    3
 -1.67612384467482e-05    9    1    4    1
 3.9023993119673e-05    9    1    4    2
 -1.08685743067609e-05    9    1    4    3
 -0.001023438724526538    9    1    4    4
 4.337792393907439e-05    9    1    5    1
 0.0001016161559332983    9    1    5    2
 -9.869614441533984e-05    9    1    5    3
 6.895329690285235e-06    9    1    5    4
 -0.0009607857863106266    9    1    5    5
 -5.945300190668836e-05    9    1    6    1
 -3.964162252896717e-06    9    1    6    2
 3.005101398999585e-06    9    1    6    3
 6.653224894795216e-05    9    1    6    4
 2.028867968732505e-08    9    1    6    5
 -0.0001356109304747012    9    1    6    6
 1.779181247051466e-06    9    1    7    1
 2.934532034500862e-07    9    1    7    2
 7.601060385534779e-06    9    1    7    3
 -7.995171065719558e-06    9    1    7    4
 2.906327457841559e-07    9    1    7    5
 1.338492257916376e-05    9    1    7    6
 -7.167665844275924e-05    9    1    7    7
 -2.383220025864447e-06    9    1    8    1
 -4.589837013462614e-06    9    1    8    2
 5.643424932819197e-06    9    1    8    3